V -t * -v 1.0a5 -a 0
W -t * -x 1000 -y 1000
A -t * -n 1 -p 0 -o 0xffffffff -c 31 -a 1
A -t * -h 1 -m 2147483647 -s 0
+ -t 0.000000000 -s 0 -d -1 -p AODV -e 44 -c 2 -a 0 -i 0 -k RTR 
- -t 0.000000000 -s 0 -d -1 -p AODV -e 44 -c 2 -a 0 -i 0 -k RTR
h -t 0.000000000 -s 0 -d -1 -p AODV -e 44 -c 2 -a 0 -i 0 -k RTR
+ -t 0.000000000 -s 1 -d -1 -p AODV -e 44 -c 2 -a 0 -i 0 -k RTR 
- -t 0.000000000 -s 1 -d -1 -p AODV -e 44 -c 2 -a 0 -i 0 -k RTR
h -t 0.000000000 -s 1 -d -1 -p AODV -e 44 -c 2 -a 0 -i 0 -k RTR
+ -t 0.000000000 -s 2 -d -1 -p AODV -e 44 -c 2 -a 0 -i 0 -k RTR 
- -t 0.000000000 -s 2 -d -1 -p AODV -e 44 -c 2 -a 0 -i 0 -k RTR
h -t 0.000000000 -s 2 -d -1 -p AODV -e 44 -c 2 -a 0 -i 0 -k RTR
+ -t 0.000000000 -s 3 -d -1 -p AODV -e 44 -c 2 -a 0 -i 0 -k RTR 
- -t 0.000000000 -s 3 -d -1 -p AODV -e 44 -c 2 -a 0 -i 0 -k RTR
h -t 0.000000000 -s 3 -d -1 -p AODV -e 44 -c 2 -a 0 -i 0 -k RTR
+ -t 0.000000000 -s 4 -d -1 -p AODV -e 44 -c 2 -a 0 -i 0 -k RTR 
- -t 0.000000000 -s 4 -d -1 -p AODV -e 44 -c 2 -a 0 -i 0 -k RTR
h -t 0.000000000 -s 4 -d -1 -p AODV -e 44 -c 2 -a 0 -i 0 -k RTR
+ -t 0.000000000 -s 5 -d -1 -p AODV -e 44 -c 2 -a 0 -i 0 -k RTR 
- -t 0.000000000 -s 5 -d -1 -p AODV -e 44 -c 2 -a 0 -i 0 -k RTR
h -t 0.000000000 -s 5 -d -1 -p AODV -e 44 -c 2 -a 0 -i 0 -k RTR
+ -t 0.000000000 -s 6 -d -1 -p AODV -e 44 -c 2 -a 0 -i 0 -k RTR 
- -t 0.000000000 -s 6 -d -1 -p AODV -e 44 -c 2 -a 0 -i 0 -k RTR
h -t 0.000000000 -s 6 -d -1 -p AODV -e 44 -c 2 -a 0 -i 0 -k RTR
+ -t 0.000000000 -s 7 -d -1 -p AODV -e 44 -c 2 -a 0 -i 0 -k RTR 
- -t 0.000000000 -s 7 -d -1 -p AODV -e 44 -c 2 -a 0 -i 0 -k RTR
h -t 0.000000000 -s 7 -d -1 -p AODV -e 44 -c 2 -a 0 -i 0 -k RTR
+ -t 0.000000000 -s 8 -d -1 -p AODV -e 44 -c 2 -a 0 -i 0 -k RTR 
- -t 0.000000000 -s 8 -d -1 -p AODV -e 44 -c 2 -a 0 -i 0 -k RTR
h -t 0.000000000 -s 8 -d -1 -p AODV -e 44 -c 2 -a 0 -i 0 -k RTR
+ -t 0.000000000 -s 9 -d -1 -p AODV -e 44 -c 2 -a 0 -i 0 -k RTR 
- -t 0.000000000 -s 9 -d -1 -p AODV -e 44 -c 2 -a 0 -i 0 -k RTR
h -t 0.000000000 -s 9 -d -1 -p AODV -e 44 -c 2 -a 0 -i 0 -k RTR
+ -t 0.000000000 -s 10 -d -1 -p AODV -e 44 -c 2 -a 0 -i 0 -k RTR 
- -t 0.000000000 -s 10 -d -1 -p AODV -e 44 -c 2 -a 0 -i 0 -k RTR
h -t 0.000000000 -s 10 -d -1 -p AODV -e 44 -c 2 -a 0 -i 0 -k RTR
+ -t 0.000000000 -s 11 -d -1 -p AODV -e 44 -c 2 -a 0 -i 0 -k RTR 
- -t 0.000000000 -s 11 -d -1 -p AODV -e 44 -c 2 -a 0 -i 0 -k RTR
h -t 0.000000000 -s 11 -d -1 -p AODV -e 44 -c 2 -a 0 -i 0 -k RTR
+ -t 0.000000000 -s 12 -d -1 -p AODV -e 44 -c 2 -a 0 -i 0 -k RTR 
- -t 0.000000000 -s 12 -d -1 -p AODV -e 44 -c 2 -a 0 -i 0 -k RTR
h -t 0.000000000 -s 12 -d -1 -p AODV -e 44 -c 2 -a 0 -i 0 -k RTR
+ -t 0.000000000 -s 13 -d -1 -p AODV -e 44 -c 2 -a 0 -i 0 -k RTR 
- -t 0.000000000 -s 13 -d -1 -p AODV -e 44 -c 2 -a 0 -i 0 -k RTR
h -t 0.000000000 -s 13 -d -1 -p AODV -e 44 -c 2 -a 0 -i 0 -k RTR
+ -t 0.000000000 -s 14 -d -1 -p AODV -e 44 -c 2 -a 0 -i 0 -k RTR 
- -t 0.000000000 -s 14 -d -1 -p AODV -e 44 -c 2 -a 0 -i 0 -k RTR
h -t 0.000000000 -s 14 -d -1 -p AODV -e 44 -c 2 -a 0 -i 0 -k RTR
+ -t 0.000000000 -s 15 -d -1 -p AODV -e 44 -c 2 -a 0 -i 0 -k RTR 
- -t 0.000000000 -s 15 -d -1 -p AODV -e 44 -c 2 -a 0 -i 0 -k RTR
h -t 0.000000000 -s 15 -d -1 -p AODV -e 44 -c 2 -a 0 -i 0 -k RTR
+ -t 0.000000000 -s 16 -d -1 -p AODV -e 44 -c 2 -a 0 -i 0 -k RTR 
- -t 0.000000000 -s 16 -d -1 -p AODV -e 44 -c 2 -a 0 -i 0 -k RTR
h -t 0.000000000 -s 16 -d -1 -p AODV -e 44 -c 2 -a 0 -i 0 -k RTR
+ -t 0.000000000 -s 17 -d -1 -p AODV -e 44 -c 2 -a 0 -i 0 -k RTR 
- -t 0.000000000 -s 17 -d -1 -p AODV -e 44 -c 2 -a 0 -i 0 -k RTR
h -t 0.000000000 -s 17 -d -1 -p AODV -e 44 -c 2 -a 0 -i 0 -k RTR
+ -t 0.000000000 -s 18 -d -1 -p AODV -e 44 -c 2 -a 0 -i 0 -k RTR 
- -t 0.000000000 -s 18 -d -1 -p AODV -e 44 -c 2 -a 0 -i 0 -k RTR
h -t 0.000000000 -s 18 -d -1 -p AODV -e 44 -c 2 -a 0 -i 0 -k RTR
+ -t 0.000000000 -s 19 -d -1 -p AODV -e 44 -c 2 -a 0 -i 0 -k RTR 
- -t 0.000000000 -s 19 -d -1 -p AODV -e 44 -c 2 -a 0 -i 0 -k RTR
h -t 0.000000000 -s 19 -d -1 -p AODV -e 44 -c 2 -a 0 -i 0 -k RTR
r -t 0.000936336 -s 16 -d -1 -p AODV -e 44 -c 2 -a 0 -i 0 -k RTR
r -t 0.000936348 -s 8 -d -1 -p AODV -e 44 -c 2 -a 0 -i 0 -k RTR
r -t 0.000936571 -s 15 -d -1 -p AODV -e 44 -c 2 -a 0 -i 0 -k RTR
r -t 0.000956664 -s 17 -d -1 -p AODV -e 44 -c 2 -a 0 -i 0 -k RTR
r -t 0.001863142 -s 3 -d -1 -p AODV -e 44 -c 2 -a 0 -i 0 -k RTR
r -t 0.001863212 -s 16 -d -1 -p AODV -e 44 -c 2 -a 0 -i 0 -k RTR
r -t 0.001863337 -s 8 -d -1 -p AODV -e 44 -c 2 -a 0 -i 0 -k RTR
r -t 0.001983328 -s 11 -d -1 -p AODV -e 44 -c 2 -a 0 -i 0 -k RTR
r -t 0.002929548 -s 3 -d -1 -p AODV -e 44 -c 2 -a 0 -i 0 -k RTR
r -t 0.002929852 -s 15 -d -1 -p AODV -e 44 -c 2 -a 0 -i 0 -k RTR
r -t 0.002929889 -s 8 -d -1 -p AODV -e 44 -c 2 -a 0 -i 0 -k RTR
r -t 0.003393666 -s 0 -d -1 -p AODV -e 44 -c 2 -a 0 -i 0 -k RTR
r -t 0.004359809 -s 2 -d -1 -p AODV -e 44 -c 2 -a 0 -i 0 -k RTR
r -t 0.004360216 -s 14 -d -1 -p AODV -e 44 -c 2 -a 0 -i 0 -k RTR
r -t 0.004360444 -s 1 -d -1 -p AODV -e 44 -c 2 -a 0 -i 0 -k RTR
r -t 0.004419147 -s 3 -d -1 -p AODV -e 44 -c 2 -a 0 -i 0 -k RTR
r -t 0.004419476 -s 16 -d -1 -p AODV -e 44 -c 2 -a 0 -i 0 -k RTR
r -t 0.004419565 -s 15 -d -1 -p AODV -e 44 -c 2 -a 0 -i 0 -k RTR
r -t 0.005730603 -s 1 -d -1 -p AODV -e 44 -c 2 -a 0 -i 0 -k RTR
r -t 0.005730635 -s 13 -d -1 -p AODV -e 44 -c 2 -a 0 -i 0 -k RTR
r -t 0.005730846 -s 4 -d -1 -p AODV -e 44 -c 2 -a 0 -i 0 -k RTR
r -t 0.005730952 -s 14 -d -1 -p AODV -e 44 -c 2 -a 0 -i 0 -k RTR
r -t 0.006637379 -s 1 -d -1 -p AODV -e 44 -c 2 -a 0 -i 0 -k RTR
r -t 0.006637502 -s 0 -d -1 -p AODV -e 44 -c 2 -a 0 -i 0 -k RTR
r -t 0.006637587 -s 13 -d -1 -p AODV -e 44 -c 2 -a 0 -i 0 -k RTR
r -t 0.006637644 -s 2 -d -1 -p AODV -e 44 -c 2 -a 0 -i 0 -k RTR
r -t 0.007948243 -s 9 -d -1 -p AODV -e 44 -c 2 -a 0 -i 0 -k RTR
r -t 0.007948408 -s 5 -d -1 -p AODV -e 44 -c 2 -a 0 -i 0 -k RTR
r -t 0.007948736 -s 13 -d -1 -p AODV -e 44 -c 2 -a 0 -i 0 -k RTR
r -t 0.007948912 -s 10 -d -1 -p AODV -e 44 -c 2 -a 0 -i 0 -k RTR
r -t 0.009014733 -s 6 -d -1 -p AODV -e 44 -c 2 -a 0 -i 0 -k RTR
r -t 0.009014892 -s 9 -d -1 -p AODV -e 44 -c 2 -a 0 -i 0 -k RTR
r -t 0.009014969 -s 10 -d -1 -p AODV -e 44 -c 2 -a 0 -i 0 -k RTR
r -t 0.009280165 -s 12 -d -1 -p AODV -e 44 -c 2 -a 0 -i 0 -k RTR
r -t 0.010571075 -s 13 -d -1 -p AODV -e 44 -c 2 -a 0 -i 0 -k RTR
r -t 0.010571266 -s 14 -d -1 -p AODV -e 44 -c 2 -a 0 -i 0 -k RTR
r -t 0.010571286 -s 18 -d -1 -p AODV -e 44 -c 2 -a 0 -i 0 -k RTR
r -t 0.010571605 -s 9 -d -1 -p AODV -e 44 -c 2 -a 0 -i 0 -k RTR
r -t 0.010571617 -s 0 -d -1 -p AODV -e 44 -c 2 -a 0 -i 0 -k RTR
r -t 0.011537765 -s 6 -d -1 -p AODV -e 44 -c 2 -a 0 -i 0 -k RTR
r -t 0.011538090 -s 5 -d -1 -p AODV -e 44 -c 2 -a 0 -i 0 -k RTR
r -t 0.011538150 -s 13 -d -1 -p AODV -e 44 -c 2 -a 0 -i 0 -k RTR
r -t 0.011538343 -s 8 -d -1 -p AODV -e 44 -c 2 -a 0 -i 0 -k RTR
r -t 0.011538371 -s 1 -d -1 -p AODV -e 44 -c 2 -a 0 -i 0 -k RTR
r -t 0.012464385 -s 1 -d -1 -p AODV -e 44 -c 2 -a 0 -i 0 -k RTR
r -t 0.012464629 -s 18 -d -1 -p AODV -e 44 -c 2 -a 0 -i 0 -k RTR
r -t 0.012464695 -s 9 -d -1 -p AODV -e 44 -c 2 -a 0 -i 0 -k RTR
r -t 0.012464785 -s 14 -d -1 -p AODV -e 44 -c 2 -a 0 -i 0 -k RTR
r -t 0.012464804 -s 6 -d -1 -p AODV -e 44 -c 2 -a 0 -i 0 -k RTR
+ -t 0.750169789 -s 0 -d -1 -p AODV -e 44 -c 2 -a 0 -i 0 -k RTR 
- -t 0.750169789 -s 0 -d -1 -p AODV -e 44 -c 2 -a 0 -i 0 -k RTR
h -t 0.750169789 -s 0 -d -1 -p AODV -e 44 -c 2 -a 0 -i 0 -k RTR
r -t 0.751365931 -s 2 -d -1 -p AODV -e 44 -c 2 -a 0 -i 0 -k RTR
r -t 0.751366338 -s 14 -d -1 -p AODV -e 44 -c 2 -a 0 -i 0 -k RTR
r -t 0.751366566 -s 1 -d -1 -p AODV -e 44 -c 2 -a 0 -i 0 -k RTR
+ -t 0.757102330 -s 2 -d -1 -p AODV -e 44 -c 2 -a 0 -i 0 -k RTR 
- -t 0.757102330 -s 2 -d -1 -p AODV -e 44 -c 2 -a 0 -i 0 -k RTR
h -t 0.757102330 -s 2 -d -1 -p AODV -e 44 -c 2 -a 0 -i 0 -k RTR
r -t 0.758258473 -s 0 -d -1 -p AODV -e 44 -c 2 -a 0 -i 0 -k RTR
r -t 0.758259022 -s 14 -d -1 -p AODV -e 44 -c 2 -a 0 -i 0 -k RTR
+ -t 0.771397279 -s 13 -d -1 -p AODV -e 44 -c 2 -a 0 -i 0 -k RTR 
- -t 0.771397279 -s 13 -d -1 -p AODV -e 44 -c 2 -a 0 -i 0 -k RTR
h -t 0.771397279 -s 13 -d -1 -p AODV -e 44 -c 2 -a 0 -i 0 -k RTR
r -t 0.772353514 -s 1 -d -1 -p AODV -e 44 -c 2 -a 0 -i 0 -k RTR
r -t 0.772353757 -s 18 -d -1 -p AODV -e 44 -c 2 -a 0 -i 0 -k RTR
r -t 0.772353824 -s 9 -d -1 -p AODV -e 44 -c 2 -a 0 -i 0 -k RTR
r -t 0.772353914 -s 14 -d -1 -p AODV -e 44 -c 2 -a 0 -i 0 -k RTR
r -t 0.772353932 -s 6 -d -1 -p AODV -e 44 -c 2 -a 0 -i 0 -k RTR
+ -t 0.794061336 -s 3 -d -1 -p AODV -e 44 -c 2 -a 0 -i 0 -k RTR 
- -t 0.794061336 -s 3 -d -1 -p AODV -e 44 -c 2 -a 0 -i 0 -k RTR
h -t 0.794061336 -s 3 -d -1 -p AODV -e 44 -c 2 -a 0 -i 0 -k RTR
r -t 0.795177672 -s 16 -d -1 -p AODV -e 44 -c 2 -a 0 -i 0 -k RTR
r -t 0.795177683 -s 8 -d -1 -p AODV -e 44 -c 2 -a 0 -i 0 -k RTR
r -t 0.795177906 -s 15 -d -1 -p AODV -e 44 -c 2 -a 0 -i 0 -k RTR
+ -t 0.797069427 -s 19 -d -1 -p AODV -e 44 -c 2 -a 0 -i 0 -k RTR 
- -t 0.797069427 -s 19 -d -1 -p AODV -e 44 -c 2 -a 0 -i 0 -k RTR
h -t 0.797069427 -s 19 -d -1 -p AODV -e 44 -c 2 -a 0 -i 0 -k RTR
+ -t 0.806904124 -s 15 -d -1 -p AODV -e 44 -c 2 -a 0 -i 0 -k RTR 
- -t 0.806904124 -s 15 -d -1 -p AODV -e 44 -c 2 -a 0 -i 0 -k RTR
h -t 0.806904124 -s 15 -d -1 -p AODV -e 44 -c 2 -a 0 -i 0 -k RTR
r -t 0.808160695 -s 3 -d -1 -p AODV -e 44 -c 2 -a 0 -i 0 -k RTR
r -t 0.808160765 -s 16 -d -1 -p AODV -e 44 -c 2 -a 0 -i 0 -k RTR
r -t 0.808160891 -s 8 -d -1 -p AODV -e 44 -c 2 -a 0 -i 0 -k RTR
+ -t 0.832072703 -s 12 -d -1 -p AODV -e 44 -c 2 -a 0 -i 0 -k RTR 
- -t 0.832072703 -s 12 -d -1 -p AODV -e 44 -c 2 -a 0 -i 0 -k RTR
h -t 0.832072703 -s 12 -d -1 -p AODV -e 44 -c 2 -a 0 -i 0 -k RTR
r -t 0.833049165 -s 4 -d -1 -p AODV -e 44 -c 2 -a 0 -i 0 -k RTR
+ -t 0.837402627 -s 18 -d -1 -p AODV -e 44 -c 2 -a 0 -i 0 -k RTR 
- -t 0.837402627 -s 18 -d -1 -p AODV -e 44 -c 2 -a 0 -i 0 -k RTR
h -t 0.837402627 -s 18 -d -1 -p AODV -e 44 -c 2 -a 0 -i 0 -k RTR
r -t 0.838919073 -s 1 -d -1 -p AODV -e 44 -c 2 -a 0 -i 0 -k RTR
r -t 0.838919105 -s 13 -d -1 -p AODV -e 44 -c 2 -a 0 -i 0 -k RTR
r -t 0.838919317 -s 4 -d -1 -p AODV -e 44 -c 2 -a 0 -i 0 -k RTR
r -t 0.838919423 -s 14 -d -1 -p AODV -e 44 -c 2 -a 0 -i 0 -k RTR
+ -t 0.867300876 -s 8 -d -1 -p AODV -e 44 -c 2 -a 0 -i 0 -k RTR 
- -t 0.867300876 -s 8 -d -1 -p AODV -e 44 -c 2 -a 0 -i 0 -k RTR
h -t 0.867300876 -s 8 -d -1 -p AODV -e 44 -c 2 -a 0 -i 0 -k RTR
r -t 0.868517224 -s 3 -d -1 -p AODV -e 44 -c 2 -a 0 -i 0 -k RTR
r -t 0.868517553 -s 16 -d -1 -p AODV -e 44 -c 2 -a 0 -i 0 -k RTR
r -t 0.868517614 -s 9 -d -1 -p AODV -e 44 -c 2 -a 0 -i 0 -k RTR
r -t 0.868517643 -s 15 -d -1 -p AODV -e 44 -c 2 -a 0 -i 0 -k RTR
r -t 0.868517673 -s 6 -d -1 -p AODV -e 44 -c 2 -a 0 -i 0 -k RTR
+ -t 0.904539529 -s 10 -d -1 -p AODV -e 44 -c 2 -a 0 -i 0 -k RTR 
- -t 0.904539529 -s 10 -d -1 -p AODV -e 44 -c 2 -a 0 -i 0 -k RTR
h -t 0.904539529 -s 10 -d -1 -p AODV -e 44 -c 2 -a 0 -i 0 -k RTR
r -t 0.905796090 -s 5 -d -1 -p AODV -e 44 -c 2 -a 0 -i 0 -k RTR
r -t 0.905796358 -s 6 -d -1 -p AODV -e 44 -c 2 -a 0 -i 0 -k RTR
+ -t 0.906480886 -s 6 -d -1 -p AODV -e 44 -c 2 -a 0 -i 0 -k RTR 
- -t 0.906480886 -s 6 -d -1 -p AODV -e 44 -c 2 -a 0 -i 0 -k RTR
h -t 0.906480886 -s 6 -d -1 -p AODV -e 44 -c 2 -a 0 -i 0 -k RTR
r -t 0.907617046 -s 9 -d -1 -p AODV -e 44 -c 2 -a 0 -i 0 -k RTR
r -t 0.907617211 -s 5 -d -1 -p AODV -e 44 -c 2 -a 0 -i 0 -k RTR
r -t 0.907617539 -s 13 -d -1 -p AODV -e 44 -c 2 -a 0 -i 0 -k RTR
r -t 0.907617683 -s 8 -d -1 -p AODV -e 44 -c 2 -a 0 -i 0 -k RTR
r -t 0.907617715 -s 10 -d -1 -p AODV -e 44 -c 2 -a 0 -i 0 -k RTR
+ -t 0.961828368 -s 17 -d -1 -p AODV -e 44 -c 2 -a 0 -i 0 -k RTR 
- -t 0.961828368 -s 17 -d -1 -p AODV -e 44 -c 2 -a 0 -i 0 -k RTR
h -t 0.961828368 -s 17 -d -1 -p AODV -e 44 -c 2 -a 0 -i 0 -k RTR
r -t 0.963185032 -s 11 -d -1 -p AODV -e 44 -c 2 -a 0 -i 0 -k RTR
+ -t 0.970586691 -s 4 -d -1 -p AODV -e 44 -c 2 -a 0 -i 0 -k RTR 
- -t 0.970586691 -s 4 -d -1 -p AODV -e 44 -c 2 -a 0 -i 0 -k RTR
h -t 0.970586691 -s 4 -d -1 -p AODV -e 44 -c 2 -a 0 -i 0 -k RTR
r -t 0.971663153 -s 12 -d -1 -p AODV -e 44 -c 2 -a 0 -i 0 -k RTR
r -t 0.971663381 -s 18 -d -1 -p AODV -e 44 -c 2 -a 0 -i 0 -k RTR
+ -t 1.027940358 -s 1 -d -1 -p AODV -e 44 -c 2 -a 0 -i 0 -k RTR 
- -t 1.027940358 -s 1 -d -1 -p AODV -e 44 -c 2 -a 0 -i 0 -k RTR
h -t 1.027940358 -s 1 -d -1 -p AODV -e 44 -c 2 -a 0 -i 0 -k RTR
r -t 1.028996593 -s 13 -d -1 -p AODV -e 44 -c 2 -a 0 -i 0 -k RTR
r -t 1.028996785 -s 14 -d -1 -p AODV -e 44 -c 2 -a 0 -i 0 -k RTR
r -t 1.028996804 -s 18 -d -1 -p AODV -e 44 -c 2 -a 0 -i 0 -k RTR
r -t 1.028997124 -s 9 -d -1 -p AODV -e 44 -c 2 -a 0 -i 0 -k RTR
r -t 1.028997136 -s 0 -d -1 -p AODV -e 44 -c 2 -a 0 -i 0 -k RTR
+ -t 1.069432572 -s 9 -d -1 -p AODV -e 44 -c 2 -a 0 -i 0 -k RTR 
- -t 1.069432572 -s 9 -d -1 -p AODV -e 44 -c 2 -a 0 -i 0 -k RTR
h -t 1.069432572 -s 9 -d -1 -p AODV -e 44 -c 2 -a 0 -i 0 -k RTR
+ -t 1.070033830 -s 14 -d -1 -p AODV -e 44 -c 2 -a 0 -i 0 -k RTR 
- -t 1.070033830 -s 14 -d -1 -p AODV -e 44 -c 2 -a 0 -i 0 -k RTR
h -t 1.070033830 -s 14 -d -1 -p AODV -e 44 -c 2 -a 0 -i 0 -k RTR
r -t 1.070768731 -s 6 -d -1 -p AODV -e 44 -c 2 -a 0 -i 0 -k RTR
r -t 1.070769056 -s 5 -d -1 -p AODV -e 44 -c 2 -a 0 -i 0 -k RTR
r -t 1.070769116 -s 13 -d -1 -p AODV -e 44 -c 2 -a 0 -i 0 -k RTR
r -t 1.070769310 -s 8 -d -1 -p AODV -e 44 -c 2 -a 0 -i 0 -k RTR
r -t 1.070769338 -s 1 -d -1 -p AODV -e 44 -c 2 -a 0 -i 0 -k RTR
r -t 1.072320085 -s 1 -d -1 -p AODV -e 44 -c 2 -a 0 -i 0 -k RTR
r -t 1.072320207 -s 0 -d -1 -p AODV -e 44 -c 2 -a 0 -i 0 -k RTR
r -t 1.072320293 -s 13 -d -1 -p AODV -e 44 -c 2 -a 0 -i 0 -k RTR
r -t 1.072320349 -s 2 -d -1 -p AODV -e 44 -c 2 -a 0 -i 0 -k RTR
r -t 1.072320454 -s 18 -d -1 -p AODV -e 44 -c 2 -a 0 -i 0 -k RTR
+ -t 1.149577727 -s 5 -d -1 -p AODV -e 44 -c 2 -a 0 -i 0 -k RTR 
- -t 1.149577727 -s 5 -d -1 -p AODV -e 44 -c 2 -a 0 -i 0 -k RTR
h -t 1.149577727 -s 5 -d -1 -p AODV -e 44 -c 2 -a 0 -i 0 -k RTR
r -t 1.150594052 -s 6 -d -1 -p AODV -e 44 -c 2 -a 0 -i 0 -k RTR
r -t 1.150594211 -s 9 -d -1 -p AODV -e 44 -c 2 -a 0 -i 0 -k RTR
r -t 1.150594288 -s 10 -d -1 -p AODV -e 44 -c 2 -a 0 -i 0 -k RTR
+ -t 1.158238026 -s 7 -d -1 -p AODV -e 44 -c 2 -a 0 -i 0 -k RTR 
- -t 1.158238026 -s 7 -d -1 -p AODV -e 44 -c 2 -a 0 -i 0 -k RTR
h -t 1.158238026 -s 7 -d -1 -p AODV -e 44 -c 2 -a 0 -i 0 -k RTR
+ -t 1.168161768 -s 11 -d -1 -p AODV -e 44 -c 2 -a 0 -i 0 -k RTR 
- -t 1.168161768 -s 11 -d -1 -p AODV -e 44 -c 2 -a 0 -i 0 -k RTR
h -t 1.168161768 -s 11 -d -1 -p AODV -e 44 -c 2 -a 0 -i 0 -k RTR
r -t 1.169098432 -s 17 -d -1 -p AODV -e 44 -c 2 -a 0 -i 0 -k RTR
+ -t 1.179863849 -s 16 -d -1 -p AODV -e 44 -c 2 -a 0 -i 0 -k RTR 
- -t 1.179863849 -s 16 -d -1 -p AODV -e 44 -c 2 -a 0 -i 0 -k RTR
h -t 1.179863849 -s 16 -d -1 -p AODV -e 44 -c 2 -a 0 -i 0 -k RTR
r -t 1.181040185 -s 3 -d -1 -p AODV -e 44 -c 2 -a 0 -i 0 -k RTR
r -t 1.181040490 -s 15 -d -1 -p AODV -e 44 -c 2 -a 0 -i 0 -k RTR
r -t 1.181040526 -s 8 -d -1 -p AODV -e 44 -c 2 -a 0 -i 0 -k RTR
+ -t 1.567075737 -s 13 -d -1 -p AODV -e 44 -c 2 -a 0 -i 0 -k RTR 
- -t 1.567075737 -s 13 -d -1 -p AODV -e 44 -c 2 -a 0 -i 0 -k RTR
h -t 1.567075737 -s 13 -d -1 -p AODV -e 44 -c 2 -a 0 -i 0 -k RTR
r -t 1.568371972 -s 1 -d -1 -p AODV -e 44 -c 2 -a 0 -i 0 -k RTR
r -t 1.568372215 -s 18 -d -1 -p AODV -e 44 -c 2 -a 0 -i 0 -k RTR
r -t 1.568372282 -s 9 -d -1 -p AODV -e 44 -c 2 -a 0 -i 0 -k RTR
r -t 1.568372372 -s 14 -d -1 -p AODV -e 44 -c 2 -a 0 -i 0 -k RTR
r -t 1.568372391 -s 6 -d -1 -p AODV -e 44 -c 2 -a 0 -i 0 -k RTR
+ -t 1.656568155 -s 6 -d -1 -p AODV -e 44 -c 2 -a 0 -i 0 -k RTR 
- -t 1.656568155 -s 6 -d -1 -p AODV -e 44 -c 2 -a 0 -i 0 -k RTR
h -t 1.656568155 -s 6 -d -1 -p AODV -e 44 -c 2 -a 0 -i 0 -k RTR
r -t 1.657964315 -s 9 -d -1 -p AODV -e 44 -c 2 -a 0 -i 0 -k RTR
r -t 1.657964480 -s 5 -d -1 -p AODV -e 44 -c 2 -a 0 -i 0 -k RTR
r -t 1.657964809 -s 13 -d -1 -p AODV -e 44 -c 2 -a 0 -i 0 -k RTR
r -t 1.657964952 -s 8 -d -1 -p AODV -e 44 -c 2 -a 0 -i 0 -k RTR
r -t 1.657964985 -s 10 -d -1 -p AODV -e 44 -c 2 -a 0 -i 0 -k RTR
+ -t 1.757679453 -s 19 -d -1 -p AODV -e 44 -c 2 -a 0 -i 0 -k RTR 
- -t 1.757679453 -s 19 -d -1 -p AODV -e 44 -c 2 -a 0 -i 0 -k RTR
h -t 1.757679453 -s 19 -d -1 -p AODV -e 44 -c 2 -a 0 -i 0 -k RTR
+ -t 1.765431917 -s 18 -d -1 -p AODV -e 44 -c 2 -a 0 -i 0 -k RTR 
- -t 1.765431917 -s 18 -d -1 -p AODV -e 44 -c 2 -a 0 -i 0 -k RTR
h -t 1.765431917 -s 18 -d -1 -p AODV -e 44 -c 2 -a 0 -i 0 -k RTR
r -t 1.766588363 -s 1 -d -1 -p AODV -e 44 -c 2 -a 0 -i 0 -k RTR
r -t 1.766588395 -s 13 -d -1 -p AODV -e 44 -c 2 -a 0 -i 0 -k RTR
r -t 1.766588607 -s 4 -d -1 -p AODV -e 44 -c 2 -a 0 -i 0 -k RTR
r -t 1.766588713 -s 14 -d -1 -p AODV -e 44 -c 2 -a 0 -i 0 -k RTR
+ -t 1.836004544 -s 14 -d -1 -p AODV -e 44 -c 2 -a 0 -i 0 -k RTR 
- -t 1.836004544 -s 14 -d -1 -p AODV -e 44 -c 2 -a 0 -i 0 -k RTR
h -t 1.836004544 -s 14 -d -1 -p AODV -e 44 -c 2 -a 0 -i 0 -k RTR
r -t 1.836920971 -s 1 -d -1 -p AODV -e 44 -c 2 -a 0 -i 0 -k RTR
r -t 1.836921093 -s 0 -d -1 -p AODV -e 44 -c 2 -a 0 -i 0 -k RTR
r -t 1.836921179 -s 13 -d -1 -p AODV -e 44 -c 2 -a 0 -i 0 -k RTR
r -t 1.836921235 -s 2 -d -1 -p AODV -e 44 -c 2 -a 0 -i 0 -k RTR
r -t 1.836921340 -s 18 -d -1 -p AODV -e 44 -c 2 -a 0 -i 0 -k RTR
+ -t 1.854570961 -s 2 -d -1 -p AODV -e 44 -c 2 -a 0 -i 0 -k RTR 
- -t 1.854570961 -s 2 -d -1 -p AODV -e 44 -c 2 -a 0 -i 0 -k RTR
h -t 1.854570961 -s 2 -d -1 -p AODV -e 44 -c 2 -a 0 -i 0 -k RTR
r -t 1.856067103 -s 0 -d -1 -p AODV -e 44 -c 2 -a 0 -i 0 -k RTR
r -t 1.856067653 -s 14 -d -1 -p AODV -e 44 -c 2 -a 0 -i 0 -k RTR
+ -t 1.857728288 -s 10 -d -1 -p AODV -e 44 -c 2 -a 0 -i 0 -k RTR 
- -t 1.857728288 -s 10 -d -1 -p AODV -e 44 -c 2 -a 0 -i 0 -k RTR
h -t 1.857728288 -s 10 -d -1 -p AODV -e 44 -c 2 -a 0 -i 0 -k RTR
r -t 1.859164849 -s 5 -d -1 -p AODV -e 44 -c 2 -a 0 -i 0 -k RTR
r -t 1.859165118 -s 6 -d -1 -p AODV -e 44 -c 2 -a 0 -i 0 -k RTR
+ -t 1.875128943 -s 12 -d -1 -p AODV -e 44 -c 2 -a 0 -i 0 -k RTR 
- -t 1.875128943 -s 12 -d -1 -p AODV -e 44 -c 2 -a 0 -i 0 -k RTR
h -t 1.875128943 -s 12 -d -1 -p AODV -e 44 -c 2 -a 0 -i 0 -k RTR
r -t 1.876565405 -s 4 -d -1 -p AODV -e 44 -c 2 -a 0 -i 0 -k RTR
+ -t 1.903210353 -s 4 -d -1 -p AODV -e 44 -c 2 -a 0 -i 0 -k RTR 
- -t 1.903210353 -s 4 -d -1 -p AODV -e 44 -c 2 -a 0 -i 0 -k RTR
h -t 1.903210353 -s 4 -d -1 -p AODV -e 44 -c 2 -a 0 -i 0 -k RTR
r -t 1.904126815 -s 12 -d -1 -p AODV -e 44 -c 2 -a 0 -i 0 -k RTR
r -t 1.904127043 -s 18 -d -1 -p AODV -e 44 -c 2 -a 0 -i 0 -k RTR
+ -t 1.916236614 -s 7 -d -1 -p AODV -e 44 -c 2 -a 0 -i 0 -k RTR 
- -t 1.916236614 -s 7 -d -1 -p AODV -e 44 -c 2 -a 0 -i 0 -k RTR
h -t 1.916236614 -s 7 -d -1 -p AODV -e 44 -c 2 -a 0 -i 0 -k RTR
+ -t 1.938807765 -s 1 -d -1 -p AODV -e 44 -c 2 -a 0 -i 0 -k RTR 
- -t 1.938807765 -s 1 -d -1 -p AODV -e 44 -c 2 -a 0 -i 0 -k RTR
h -t 1.938807765 -s 1 -d -1 -p AODV -e 44 -c 2 -a 0 -i 0 -k RTR
r -t 1.940084000 -s 13 -d -1 -p AODV -e 44 -c 2 -a 0 -i 0 -k RTR
r -t 1.940084192 -s 14 -d -1 -p AODV -e 44 -c 2 -a 0 -i 0 -k RTR
r -t 1.940084211 -s 18 -d -1 -p AODV -e 44 -c 2 -a 0 -i 0 -k RTR
r -t 1.940084531 -s 9 -d -1 -p AODV -e 44 -c 2 -a 0 -i 0 -k RTR
r -t 1.940084542 -s 0 -d -1 -p AODV -e 44 -c 2 -a 0 -i 0 -k RTR
+ -t 1.973577883 -s 0 -d -1 -p AODV -e 44 -c 2 -a 0 -i 0 -k RTR 
- -t 1.973577883 -s 0 -d -1 -p AODV -e 44 -c 2 -a 0 -i 0 -k RTR
h -t 1.973577883 -s 0 -d -1 -p AODV -e 44 -c 2 -a 0 -i 0 -k RTR
r -t 1.975094026 -s 2 -d -1 -p AODV -e 44 -c 2 -a 0 -i 0 -k RTR
r -t 1.975094433 -s 14 -d -1 -p AODV -e 44 -c 2 -a 0 -i 0 -k RTR
r -t 1.975094661 -s 1 -d -1 -p AODV -e 44 -c 2 -a 0 -i 0 -k RTR
+ -t 1.976614076 -s 3 -d -1 -p AODV -e 44 -c 2 -a 0 -i 0 -k RTR 
- -t 1.976614076 -s 3 -d -1 -p AODV -e 44 -c 2 -a 0 -i 0 -k RTR
h -t 1.976614076 -s 3 -d -1 -p AODV -e 44 -c 2 -a 0 -i 0 -k RTR
r -t 1.978070413 -s 16 -d -1 -p AODV -e 44 -c 2 -a 0 -i 0 -k RTR
r -t 1.978070424 -s 8 -d -1 -p AODV -e 44 -c 2 -a 0 -i 0 -k RTR
r -t 1.978070647 -s 15 -d -1 -p AODV -e 44 -c 2 -a 0 -i 0 -k RTR
+ -t 2.008327946 -s 15 -d -1 -p AODV -e 44 -c 2 -a 0 -i 0 -k RTR 
- -t 2.008327946 -s 15 -d -1 -p AODV -e 44 -c 2 -a 0 -i 0 -k RTR
h -t 2.008327946 -s 15 -d -1 -p AODV -e 44 -c 2 -a 0 -i 0 -k RTR
+ -t 2.009188400 -s 8 -d -1 -p AODV -e 44 -c 2 -a 0 -i 0 -k RTR 
- -t 2.009188400 -s 8 -d -1 -p AODV -e 44 -c 2 -a 0 -i 0 -k RTR
h -t 2.009188400 -s 8 -d -1 -p AODV -e 44 -c 2 -a 0 -i 0 -k RTR
r -t 2.009604517 -s 3 -d -1 -p AODV -e 44 -c 2 -a 0 -i 0 -k RTR
r -t 2.009604587 -s 16 -d -1 -p AODV -e 44 -c 2 -a 0 -i 0 -k RTR
r -t 2.009604712 -s 8 -d -1 -p AODV -e 44 -c 2 -a 0 -i 0 -k RTR
r -t 2.010551060 -s 3 -d -1 -p AODV -e 44 -c 2 -a 0 -i 0 -k RTR
r -t 2.010551389 -s 16 -d -1 -p AODV -e 44 -c 2 -a 0 -i 0 -k RTR
r -t 2.010551450 -s 9 -d -1 -p AODV -e 44 -c 2 -a 0 -i 0 -k RTR
r -t 2.010551479 -s 15 -d -1 -p AODV -e 44 -c 2 -a 0 -i 0 -k RTR
r -t 2.010551509 -s 6 -d -1 -p AODV -e 44 -c 2 -a 0 -i 0 -k RTR
+ -t 2.036939863 -s 16 -d -1 -p AODV -e 44 -c 2 -a 0 -i 0 -k RTR 
- -t 2.036939863 -s 16 -d -1 -p AODV -e 44 -c 2 -a 0 -i 0 -k RTR
h -t 2.036939863 -s 16 -d -1 -p AODV -e 44 -c 2 -a 0 -i 0 -k RTR
r -t 2.038176199 -s 3 -d -1 -p AODV -e 44 -c 2 -a 0 -i 0 -k RTR
r -t 2.038176504 -s 15 -d -1 -p AODV -e 44 -c 2 -a 0 -i 0 -k RTR
r -t 2.038176540 -s 8 -d -1 -p AODV -e 44 -c 2 -a 0 -i 0 -k RTR
+ -t 2.059673271 -s 17 -d -1 -p AODV -e 44 -c 2 -a 0 -i 0 -k RTR 
- -t 2.059673271 -s 17 -d -1 -p AODV -e 44 -c 2 -a 0 -i 0 -k RTR
h -t 2.059673271 -s 17 -d -1 -p AODV -e 44 -c 2 -a 0 -i 0 -k RTR
r -t 2.061109935 -s 11 -d -1 -p AODV -e 44 -c 2 -a 0 -i 0 -k RTR
+ -t 2.083767777 -s 11 -d -1 -p AODV -e 44 -c 2 -a 0 -i 0 -k RTR 
- -t 2.083767777 -s 11 -d -1 -p AODV -e 44 -c 2 -a 0 -i 0 -k RTR
h -t 2.083767777 -s 11 -d -1 -p AODV -e 44 -c 2 -a 0 -i 0 -k RTR
r -t 2.085284441 -s 17 -d -1 -p AODV -e 44 -c 2 -a 0 -i 0 -k RTR
+ -t 2.159951166 -s 5 -d -1 -p AODV -e 44 -c 2 -a 0 -i 0 -k RTR 
- -t 2.159951166 -s 5 -d -1 -p AODV -e 44 -c 2 -a 0 -i 0 -k RTR
h -t 2.159951166 -s 5 -d -1 -p AODV -e 44 -c 2 -a 0 -i 0 -k RTR
r -t 2.161187491 -s 6 -d -1 -p AODV -e 44 -c 2 -a 0 -i 0 -k RTR
r -t 2.161187651 -s 9 -d -1 -p AODV -e 44 -c 2 -a 0 -i 0 -k RTR
r -t 2.161187727 -s 10 -d -1 -p AODV -e 44 -c 2 -a 0 -i 0 -k RTR
+ -t 2.222348490 -s 9 -d -1 -p AODV -e 44 -c 2 -a 0 -i 0 -k RTR 
- -t 2.222348490 -s 9 -d -1 -p AODV -e 44 -c 2 -a 0 -i 0 -k RTR
h -t 2.222348490 -s 9 -d -1 -p AODV -e 44 -c 2 -a 0 -i 0 -k RTR
r -t 2.223564650 -s 6 -d -1 -p AODV -e 44 -c 2 -a 0 -i 0 -k RTR
r -t 2.223564974 -s 5 -d -1 -p AODV -e 44 -c 2 -a 0 -i 0 -k RTR
r -t 2.223565035 -s 13 -d -1 -p AODV -e 44 -c 2 -a 0 -i 0 -k RTR
r -t 2.223565228 -s 8 -d -1 -p AODV -e 44 -c 2 -a 0 -i 0 -k RTR
r -t 2.223565256 -s 1 -d -1 -p AODV -e 44 -c 2 -a 0 -i 0 -k RTR
+ -t 2.520815279 -s 13 -d -1 -p AODV -e 44 -c 2 -a 0 -i 0 -k RTR 
- -t 2.520815279 -s 13 -d -1 -p AODV -e 44 -c 2 -a 0 -i 0 -k RTR
h -t 2.520815279 -s 13 -d -1 -p AODV -e 44 -c 2 -a 0 -i 0 -k RTR
r -t 2.522191515 -s 1 -d -1 -p AODV -e 44 -c 2 -a 0 -i 0 -k RTR
r -t 2.522191758 -s 18 -d -1 -p AODV -e 44 -c 2 -a 0 -i 0 -k RTR
r -t 2.522191824 -s 9 -d -1 -p AODV -e 44 -c 2 -a 0 -i 0 -k RTR
r -t 2.522191914 -s 14 -d -1 -p AODV -e 44 -c 2 -a 0 -i 0 -k RTR
r -t 2.522191933 -s 6 -d -1 -p AODV -e 44 -c 2 -a 0 -i 0 -k RTR
+ -t 2.586936311 -s 19 -d -1 -p AODV -e 44 -c 2 -a 0 -i 0 -k RTR 
- -t 2.586936311 -s 19 -d -1 -p AODV -e 44 -c 2 -a 0 -i 0 -k RTR
h -t 2.586936311 -s 19 -d -1 -p AODV -e 44 -c 2 -a 0 -i 0 -k RTR
+ -t 2.603774327 -s 18 -d -1 -p AODV -e 44 -c 2 -a 0 -i 0 -k RTR 
- -t 2.603774327 -s 18 -d -1 -p AODV -e 44 -c 2 -a 0 -i 0 -k RTR
h -t 2.603774327 -s 18 -d -1 -p AODV -e 44 -c 2 -a 0 -i 0 -k RTR
r -t 2.605030774 -s 1 -d -1 -p AODV -e 44 -c 2 -a 0 -i 0 -k RTR
r -t 2.605030806 -s 13 -d -1 -p AODV -e 44 -c 2 -a 0 -i 0 -k RTR
r -t 2.605031017 -s 4 -d -1 -p AODV -e 44 -c 2 -a 0 -i 0 -k RTR
r -t 2.605031123 -s 14 -d -1 -p AODV -e 44 -c 2 -a 0 -i 0 -k RTR
+ -t 2.739617380 -s 12 -d -1 -p AODV -e 44 -c 2 -a 0 -i 0 -k RTR 
- -t 2.739617380 -s 12 -d -1 -p AODV -e 44 -c 2 -a 0 -i 0 -k RTR
h -t 2.739617380 -s 12 -d -1 -p AODV -e 44 -c 2 -a 0 -i 0 -k RTR
r -t 2.740633841 -s 4 -d -1 -p AODV -e 44 -c 2 -a 0 -i 0 -k RTR
+ -t 2.854968588 -s 6 -d -1 -p AODV -e 44 -c 2 -a 0 -i 0 -k RTR 
- -t 2.854968588 -s 6 -d -1 -p AODV -e 44 -c 2 -a 0 -i 0 -k RTR
h -t 2.854968588 -s 6 -d -1 -p AODV -e 44 -c 2 -a 0 -i 0 -k RTR
r -t 2.855924747 -s 9 -d -1 -p AODV -e 44 -c 2 -a 0 -i 0 -k RTR
r -t 2.855924913 -s 5 -d -1 -p AODV -e 44 -c 2 -a 0 -i 0 -k RTR
r -t 2.855925241 -s 13 -d -1 -p AODV -e 44 -c 2 -a 0 -i 0 -k RTR
r -t 2.855925384 -s 8 -d -1 -p AODV -e 44 -c 2 -a 0 -i 0 -k RTR
r -t 2.855925417 -s 10 -d -1 -p AODV -e 44 -c 2 -a 0 -i 0 -k RTR
+ -t 2.875255160 -s 14 -d -1 -p AODV -e 44 -c 2 -a 0 -i 0 -k RTR 
- -t 2.875255160 -s 14 -d -1 -p AODV -e 44 -c 2 -a 0 -i 0 -k RTR
h -t 2.875255160 -s 14 -d -1 -p AODV -e 44 -c 2 -a 0 -i 0 -k RTR
r -t 2.876231587 -s 1 -d -1 -p AODV -e 44 -c 2 -a 0 -i 0 -k RTR
r -t 2.876231709 -s 0 -d -1 -p AODV -e 44 -c 2 -a 0 -i 0 -k RTR
r -t 2.876231795 -s 13 -d -1 -p AODV -e 44 -c 2 -a 0 -i 0 -k RTR
r -t 2.876231851 -s 2 -d -1 -p AODV -e 44 -c 2 -a 0 -i 0 -k RTR
r -t 2.876231956 -s 18 -d -1 -p AODV -e 44 -c 2 -a 0 -i 0 -k RTR
+ -t 2.883197224 -s 4 -d -1 -p AODV -e 44 -c 2 -a 0 -i 0 -k RTR 
- -t 2.883197224 -s 4 -d -1 -p AODV -e 44 -c 2 -a 0 -i 0 -k RTR
h -t 2.883197224 -s 4 -d -1 -p AODV -e 44 -c 2 -a 0 -i 0 -k RTR
r -t 2.884393686 -s 12 -d -1 -p AODV -e 44 -c 2 -a 0 -i 0 -k RTR
r -t 2.884393914 -s 18 -d -1 -p AODV -e 44 -c 2 -a 0 -i 0 -k RTR
+ -t 2.930219892 -s 11 -d -1 -p AODV -e 44 -c 2 -a 0 -i 0 -k RTR 
- -t 2.930219892 -s 11 -d -1 -p AODV -e 44 -c 2 -a 0 -i 0 -k RTR
h -t 2.930219892 -s 11 -d -1 -p AODV -e 44 -c 2 -a 0 -i 0 -k RTR
r -t 2.931496556 -s 17 -d -1 -p AODV -e 44 -c 2 -a 0 -i 0 -k RTR
+ -t 2.958923621 -s 1 -d -1 -p AODV -e 44 -c 2 -a 0 -i 0 -k RTR 
- -t 2.958923621 -s 1 -d -1 -p AODV -e 44 -c 2 -a 0 -i 0 -k RTR
h -t 2.958923621 -s 1 -d -1 -p AODV -e 44 -c 2 -a 0 -i 0 -k RTR
r -t 2.960179856 -s 13 -d -1 -p AODV -e 44 -c 2 -a 0 -i 0 -k RTR
r -t 2.960180048 -s 14 -d -1 -p AODV -e 44 -c 2 -a 0 -i 0 -k RTR
r -t 2.960180067 -s 18 -d -1 -p AODV -e 44 -c 2 -a 0 -i 0 -k RTR
r -t 2.960180387 -s 9 -d -1 -p AODV -e 44 -c 2 -a 0 -i 0 -k RTR
r -t 2.960180398 -s 0 -d -1 -p AODV -e 44 -c 2 -a 0 -i 0 -k RTR
+ -t 2.969659071 -s 5 -d -1 -p AODV -e 44 -c 2 -a 0 -i 0 -k RTR 
- -t 2.969659071 -s 5 -d -1 -p AODV -e 44 -c 2 -a 0 -i 0 -k RTR
h -t 2.969659071 -s 5 -d -1 -p AODV -e 44 -c 2 -a 0 -i 0 -k RTR
r -t 2.970935396 -s 6 -d -1 -p AODV -e 44 -c 2 -a 0 -i 0 -k RTR
r -t 2.970935555 -s 9 -d -1 -p AODV -e 44 -c 2 -a 0 -i 0 -k RTR
r -t 2.970935632 -s 10 -d -1 -p AODV -e 44 -c 2 -a 0 -i 0 -k RTR
+ -t 2.976258518 -s 16 -d -1 -p AODV -e 44 -c 2 -a 0 -i 0 -k RTR 
- -t 2.976258518 -s 16 -d -1 -p AODV -e 44 -c 2 -a 0 -i 0 -k RTR
h -t 2.976258518 -s 16 -d -1 -p AODV -e 44 -c 2 -a 0 -i 0 -k RTR
r -t 2.977434854 -s 3 -d -1 -p AODV -e 44 -c 2 -a 0 -i 0 -k RTR
r -t 2.977435159 -s 15 -d -1 -p AODV -e 44 -c 2 -a 0 -i 0 -k RTR
r -t 2.977435195 -s 8 -d -1 -p AODV -e 44 -c 2 -a 0 -i 0 -k RTR
n -t 3.000000 -s 0 -x 321.508919 -y 726.749331 -U 1.057826 -V -0.367906 -T 313.968994
n -t 3.000000 -s 1 -x 484.849827 -y 560.189704 -U 0.027751 -V -0.142632 -T 1956.865773
n -t 3.000000 -s 2 -x 279.419516 -y 733.932247 -U 8.138177 -V 3.778988 -T 22.778642
n -t 3.000000 -s 3 -x 590.637772 -y 177.685681 -U -0.060170 -V 1.854956 -T 405.195500
n -t 3.000000 -s 4 -x 238.831723 -y 324.329892 -U 7.092311 -V 3.660847 -T 33.437369
n -t 3.000000 -s 5 -x 804.761447 -y 466.491992 -U -8.527274 -V -4.991896 -T 46.164246
n -t 3.000000 -s 6 -x 711.346421 -y 438.581735 -U 3.401740 -V 7.517707 -T 32.278189
n -t 3.000000 -s 7 -x 672.139848 -y 926.511499 -U -9.350955 -V -1.407995 -T 29.198833
n -t 3.000000 -s 8 -x 692.517649 -y 200.269025 -U 4.305378 -V 4.770438 -T 67.239439
n -t 3.000000 -s 9 -x 667.072405 -y 420.165556 -U 5.228414 -V -2.978856 -T 57.756896
n -t 3.000000 -s 10 -x 890.417148 -y 611.386312 -U -3.782342 -V 6.847292 -T 48.765416
n -t 3.000000 -s 11 -x 47.457952 -y 839.441737 -U 0.253679 -V -0.835179 -T 390.978801
n -t 3.000000 -s 12 -x 153.101198 -y 215.499957 -U 7.265628 -V 3.129233 -T 81.259641
n -t 3.000000 -s 13 -x 526.135665 -y 502.947954 -U 5.849385 -V 5.408129 -T 45.780426
n -t 3.000000 -s 14 -x 481.733407 -y 688.226182 -U 5.862392 -V -6.625720 -T 72.748396
n -t 3.000000 -s 15 -x 565.925313 -y 8.241941 -U -0.865780 -V 1.544605 -T 522.308455
n -t 3.000000 -s 16 -x 489.996722 -y 184.853132 -U -4.629437 -V -5.177752 -T 8.074230
n -t 3.000000 -s 17 -x 38.875552 -y 640.467661 -U 6.215548 -V -1.337295 -T 100.515407
n -t 3.000000 -s 18 -x 386.658261 -y 469.172814 -U 3.365456 -V -3.074614 -T 139.682997
n -t 3.000000 -s 19 -x 415.158216 -y 985.424462 -U -1.471527 -V -9.776508 -T 20.164942
+ -t 3.004747274 -s 10 -d -1 -p AODV -e 44 -c 2 -a 0 -i 0 -k RTR 
- -t 3.004747274 -s 10 -d -1 -p AODV -e 44 -c 2 -a 0 -i 0 -k RTR
h -t 3.004747274 -s 10 -d -1 -p AODV -e 44 -c 2 -a 0 -i 0 -k RTR
r -t 3.005903836 -s 5 -d -1 -p AODV -e 44 -c 2 -a 0 -i 0 -k RTR
r -t 3.005904104 -s 6 -d -1 -p AODV -e 44 -c 2 -a 0 -i 0 -k RTR
+ -t 3.019691614 -s 2 -d -1 -p AODV -e 44 -c 2 -a 0 -i 0 -k RTR 
- -t 3.019691614 -s 2 -d -1 -p AODV -e 44 -c 2 -a 0 -i 0 -k RTR
h -t 3.019691614 -s 2 -d -1 -p AODV -e 44 -c 2 -a 0 -i 0 -k RTR
r -t 3.020707756 -s 0 -d -1 -p AODV -e 44 -c 2 -a 0 -i 0 -k RTR
r -t 3.020708305 -s 14 -d -1 -p AODV -e 44 -c 2 -a 0 -i 0 -k RTR
+ -t 3.079517180 -s 9 -d -1 -p AODV -e 44 -c 2 -a 0 -i 0 -k RTR 
- -t 3.079517180 -s 9 -d -1 -p AODV -e 44 -c 2 -a 0 -i 0 -k RTR
h -t 3.079517180 -s 9 -d -1 -p AODV -e 44 -c 2 -a 0 -i 0 -k RTR
r -t 3.080813341 -s 6 -d -1 -p AODV -e 44 -c 2 -a 0 -i 0 -k RTR
r -t 3.080813661 -s 5 -d -1 -p AODV -e 44 -c 2 -a 0 -i 0 -k RTR
r -t 3.080813726 -s 13 -d -1 -p AODV -e 44 -c 2 -a 0 -i 0 -k RTR
r -t 3.080813916 -s 8 -d -1 -p AODV -e 44 -c 2 -a 0 -i 0 -k RTR
r -t 3.080813948 -s 1 -d -1 -p AODV -e 44 -c 2 -a 0 -i 0 -k RTR
+ -t 3.091507778 -s 3 -d -1 -p AODV -e 44 -c 2 -a 0 -i 0 -k RTR 
- -t 3.091507778 -s 3 -d -1 -p AODV -e 44 -c 2 -a 0 -i 0 -k RTR
h -t 3.091507778 -s 3 -d -1 -p AODV -e 44 -c 2 -a 0 -i 0 -k RTR
r -t 3.093004116 -s 16 -d -1 -p AODV -e 44 -c 2 -a 0 -i 0 -k RTR
r -t 3.093004127 -s 8 -d -1 -p AODV -e 44 -c 2 -a 0 -i 0 -k RTR