s 0.000000000 _0_ RTR  --- 0 AODV 44 [0 0 0 0] ------- [0:255 -1:255 1 0] [0x1 1 [0 2] 4.000000] (HELLO)
s 0.000000000 _1_ RTR  --- 0 AODV 44 [0 0 0 0] ------- [1:255 -1:255 1 0] [0x1 1 [1 2] 4.000000] (HELLO)
s 0.000000000 _2_ RTR  --- 0 AODV 44 [0 0 0 0] ------- [2:255 -1:255 1 0] [0x1 1 [2 2] 4.000000] (HELLO)
s 0.000000000 _3_ RTR  --- 0 AODV 44 [0 0 0 0] ------- [3:255 -1:255 1 0] [0x1 1 [3 2] 4.000000] (HELLO)
s 0.000000000 _4_ RTR  --- 0 AODV 44 [0 0 0 0] ------- [4:255 -1:255 1 0] [0x1 1 [4 2] 4.000000] (HELLO)
s 0.000000000 _5_ RTR  --- 0 AODV 44 [0 0 0 0] ------- [5:255 -1:255 1 0] [0x1 1 [5 2] 4.000000] (HELLO)
s 0.000000000 _6_ RTR  --- 0 AODV 44 [0 0 0 0] ------- [6:255 -1:255 1 0] [0x1 1 [6 2] 4.000000] (HELLO)
s 0.000000000 _7_ RTR  --- 0 AODV 44 [0 0 0 0] ------- [7:255 -1:255 1 0] [0x1 1 [7 2] 4.000000] (HELLO)
r 0.000956546 _1_ RTR  --- 0 AODV 44 [0 ffffffff 4 800] ------- [4:255 -1:255 1 0] [0x1 1 [4 2] 4.000000] (HELLO)
r 0.000956647 _0_ RTR  --- 0 AODV 44 [0 ffffffff 4 800] ------- [4:255 -1:255 1 0] [0x1 1 [4 2] 4.000000] (HELLO)
r 0.000956818 _6_ RTR  --- 0 AODV 44 [0 ffffffff 4 800] ------- [4:255 -1:255 1 0] [0x1 1 [4 2] 4.000000] (HELLO)
r 0.001943091 _1_ RTR  --- 0 AODV 44 [0 ffffffff 6 800] ------- [6:255 -1:255 1 0] [0x1 1 [6 2] 4.000000] (HELLO)
r 0.001943270 _2_ RTR  --- 0 AODV 44 [0 ffffffff 6 800] ------- [6:255 -1:255 1 0] [0x1 1 [6 2] 4.000000] (HELLO)
r 0.001943617 _0_ RTR  --- 0 AODV 44 [0 ffffffff 6 800] ------- [6:255 -1:255 1 0] [0x1 1 [6 2] 4.000000] (HELLO)
r 0.001943637 _4_ RTR  --- 0 AODV 44 [0 ffffffff 6 800] ------- [6:255 -1:255 1 0] [0x1 1 [6 2] 4.000000] (HELLO)
r 0.002890263 _1_ RTR  --- 0 AODV 44 [0 ffffffff 0 800] ------- [0:255 -1:255 1 0] [0x1 1 [0 2] 4.000000] (HELLO)
r 0.002890264 _4_ RTR  --- 0 AODV 44 [0 ffffffff 0 800] ------- [0:255 -1:255 1 0] [0x1 1 [0 2] 4.000000] (HELLO)
r 0.002890276 _3_ RTR  --- 0 AODV 44 [0 ffffffff 0 800] ------- [0:255 -1:255 1 0] [0x1 1 [0 2] 4.000000] (HELLO)
r 0.003956936 _0_ RTR  --- 0 AODV 44 [0 ffffffff 3 800] ------- [3:255 -1:255 1 0] [0x1 1 [3 2] 4.000000] (HELLO)
r 0.005225253 _2_ RTR  --- 0 AODV 44 [0 ffffffff 5 800] ------- [5:255 -1:255 1 0] [0x1 1 [5 2] 4.000000] (HELLO)
r 0.005225562 _1_ RTR  --- 0 AODV 44 [0 ffffffff 5 800] ------- [5:255 -1:255 1 0] [0x1 1 [5 2] 4.000000] (HELLO)
r 0.006191835 _6_ RTR  --- 0 AODV 44 [0 ffffffff 1 800] ------- [1:255 -1:255 1 0] [0x1 1 [1 2] 4.000000] (HELLO)
r 0.006192052 _2_ RTR  --- 0 AODV 44 [0 ffffffff 1 800] ------- [1:255 -1:255 1 0] [0x1 1 [1 2] 4.000000] (HELLO)
r 0.006192108 _4_ RTR  --- 0 AODV 44 [0 ffffffff 1 800] ------- [1:255 -1:255 1 0] [0x1 1 [1 2] 4.000000] (HELLO)
r 0.006192209 _0_ RTR  --- 0 AODV 44 [0 ffffffff 1 800] ------- [1:255 -1:255 1 0] [0x1 1 [1 2] 4.000000] (HELLO)
r 0.006192336 _5_ RTR  --- 0 AODV 44 [0 ffffffff 1 800] ------- [1:255 -1:255 1 0] [0x1 1 [1 2] 4.000000] (HELLO)
r 0.007078503 _6_ RTR  --- 0 AODV 44 [0 ffffffff 2 800] ------- [2:255 -1:255 1 0] [0x1 1 [2 2] 4.000000] (HELLO)
r 0.007078517 _5_ RTR  --- 0 AODV 44 [0 ffffffff 2 800] ------- [2:255 -1:255 1 0] [0x1 1 [2 2] 4.000000] (HELLO)
r 0.007078542 _1_ RTR  --- 0 AODV 44 [0 ffffffff 2 800] ------- [2:255 -1:255 1 0] [0x1 1 [2 2] 4.000000] (HELLO)
r 0.007078812 _7_ RTR  --- 0 AODV 44 [0 ffffffff 2 800] ------- [2:255 -1:255 1 0] [0x1 1 [2 2] 4.000000] (HELLO)
s 0.750169789 _0_ RTR  --- 0 AODV 44 [0 0 0 0] ------- [0:255 -1:255 1 0] [0x1 1 [0 10] 4.000000] (HELLO)
r 0.751526435 _1_ RTR  --- 0 AODV 44 [0 ffffffff 0 800] ------- [0:255 -1:255 1 0] [0x1 1 [0 10] 4.000000] (HELLO)
r 0.751526436 _4_ RTR  --- 0 AODV 44 [0 ffffffff 0 800] ------- [0:255 -1:255 1 0] [0x1 1 [0 10] 4.000000] (HELLO)
r 0.751526448 _3_ RTR  --- 0 AODV 44 [0 ffffffff 0 800] ------- [0:255 -1:255 1 0] [0x1 1 [0 10] 4.000000] (HELLO)
r 0.751526587 _6_ RTR  --- 0 AODV 44 [0 ffffffff 0 800] ------- [0:255 -1:255 1 0] [0x1 1 [0 10] 4.000000] (HELLO)
s 0.757102330 _2_ RTR  --- 0 AODV 44 [0 0 0 0] ------- [2:255 -1:255 1 0] [0x1 1 [2 8] 4.000000] (HELLO)
r 0.758418781 _6_ RTR  --- 0 AODV 44 [0 ffffffff 2 800] ------- [2:255 -1:255 1 0] [0x1 1 [2 8] 4.000000] (HELLO)
r 0.758418795 _5_ RTR  --- 0 AODV 44 [0 ffffffff 2 800] ------- [2:255 -1:255 1 0] [0x1 1 [2 8] 4.000000] (HELLO)
r 0.758418820 _1_ RTR  --- 0 AODV 44 [0 ffffffff 2 800] ------- [2:255 -1:255 1 0] [0x1 1 [2 8] 4.000000] (HELLO)
r 0.758419091 _7_ RTR  --- 0 AODV 44 [0 ffffffff 2 800] ------- [2:255 -1:255 1 0] [0x1 1 [2 8] 4.000000] (HELLO)
s 0.794061336 _3_ RTR  --- 0 AODV 44 [0 0 0 0] ------- [3:255 -1:255 1 0] [0x1 1 [3 4] 4.000000] (HELLO)
r 0.795017995 _0_ RTR  --- 0 AODV 44 [0 ffffffff 3 800] ------- [3:255 -1:255 1 0] [0x1 1 [3 4] 4.000000] (HELLO)
s 0.906480886 _6_ RTR  --- 0 AODV 44 [0 0 0 0] ------- [6:255 -1:255 1 0] [0x1 1 [6 10] 4.000000] (HELLO)
r 0.907537159 _1_ RTR  --- 0 AODV 44 [0 ffffffff 6 800] ------- [6:255 -1:255 1 0] [0x1 1 [6 10] 4.000000] (HELLO)
r 0.907537337 _2_ RTR  --- 0 AODV 44 [0 ffffffff 6 800] ------- [6:255 -1:255 1 0] [0x1 1 [6 10] 4.000000] (HELLO)
r 0.907537684 _0_ RTR  --- 0 AODV 44 [0 ffffffff 6 800] ------- [6:255 -1:255 1 0] [0x1 1 [6 10] 4.000000] (HELLO)
r 0.907537704 _4_ RTR  --- 0 AODV 44 [0 ffffffff 6 800] ------- [6:255 -1:255 1 0] [0x1 1 [6 10] 4.000000] (HELLO)
s 0.970586691 _4_ RTR  --- 0 AODV 44 [0 0 0 0] ------- [4:255 -1:255 1 0] [0x1 1 [4 8] 4.000000] (HELLO)
r 0.971703237 _1_ RTR  --- 0 AODV 44 [0 ffffffff 4 800] ------- [4:255 -1:255 1 0] [0x1 1 [4 8] 4.000000] (HELLO)
r 0.971703338 _0_ RTR  --- 0 AODV 44 [0 ffffffff 4 800] ------- [4:255 -1:255 1 0] [0x1 1 [4 8] 4.000000] (HELLO)
r 0.971703509 _6_ RTR  --- 0 AODV 44 [0 ffffffff 4 800] ------- [4:255 -1:255 1 0] [0x1 1 [4 8] 4.000000] (HELLO)
s 1.000000000 _0_ AGT  --- 0 cbr 1000 [0 0 0 0] ------- [0:0 2:0 32 0] [0] 0 0
r 1.000000000 _0_ RTR  --- 0 cbr 1000 [0 0 0 0] ------- [0:0 2:0 32 0] [0] 0 0
s 1.000000000 _0_ RTR  --- 0 AODV 48 [0 0 0 0] ------- [0:255 -1:255 30 0] [0x2 1 1 [2 0] [0 12]] (REQUEST)
r 1.001468647 _1_ RTR  --- 0 AODV 48 [0 ffffffff 0 800] ------- [0:255 -1:255 30 0] [0x2 1 1 [2 0] [0 12]] (REQUEST)
r 1.001468647 _4_ RTR  --- 0 AODV 48 [0 ffffffff 0 800] ------- [0:255 -1:255 30 0] [0x2 1 1 [2 0] [0 12]] (REQUEST)
r 1.001468660 _3_ RTR  --- 0 AODV 48 [0 ffffffff 0 800] ------- [0:255 -1:255 30 0] [0x2 1 1 [2 0] [0 12]] (REQUEST)
r 1.001468798 _6_ RTR  --- 0 AODV 48 [0 ffffffff 0 800] ------- [0:255 -1:255 30 0] [0x2 1 1 [2 0] [0 12]] (REQUEST)
s 1.001576882 _6_ RTR  --- 0 AODV 48 [0 ffffffff 0 800] ------- [6:255 -1:255 29 0] [0x2 2 1 [2 0] [0 12]] (REQUEST)
s 1.002052686 _3_ RTR  --- 0 AODV 48 [0 ffffffff 0 800] ------- [3:255 -1:255 29 0] [0x2 2 1 [2 0] [0 12]] (REQUEST)
s 1.002588960 _4_ RTR  --- 0 AODV 48 [0 ffffffff 0 800] ------- [4:255 -1:255 29 0] [0x2 2 1 [2 0] [0 12]] (REQUEST)
r 1.002865154 _1_ RTR  --- 0 AODV 48 [0 ffffffff 6 800] ------- [6:255 -1:255 29 0] [0x2 2 1 [2 0] [0 12]] (REQUEST)
r 1.002865333 _2_ RTR  --- 0 AODV 48 [0 ffffffff 6 800] ------- [6:255 -1:255 29 0] [0x2 2 1 [2 0] [0 12]] (REQUEST)
s 1.002865333 _2_ RTR  --- 0 AODV 44 [0 0 0 0] ------- [2:255 0:255 30 6] [0x4 1 [2 10] 10.000000] (REPLY)
r 1.002865680 _0_ RTR  --- 0 AODV 48 [0 ffffffff 6 800] ------- [6:255 -1:255 29 0] [0x2 2 1 [2 0] [0 12]] (REQUEST)
r 1.002865700 _4_ RTR  --- 0 AODV 48 [0 ffffffff 6 800] ------- [6:255 -1:255 29 0] [0x2 2 1 [2 0] [0 12]] (REQUEST)
r 1.004044246 _1_ RTR  --- 0 AODV 48 [0 ffffffff 4 800] ------- [4:255 -1:255 29 0] [0x2 2 1 [2 0] [0 12]] (REQUEST)
r 1.004044347 _0_ RTR  --- 0 AODV 48 [0 ffffffff 4 800] ------- [4:255 -1:255 29 0] [0x2 2 1 [2 0] [0 12]] (REQUEST)
r 1.004044519 _6_ RTR  --- 0 AODV 48 [0 ffffffff 4 800] ------- [4:255 -1:255 29 0] [0x2 2 1 [2 0] [0 12]] (REQUEST)
s 1.008000000 _0_ AGT  --- 1 cbr 1000 [0 0 0 0] ------- [0:0 2:0 32 0] [1] 0 0
r 1.008000000 _0_ RTR  --- 1 cbr 1000 [0 0 0 0] ------- [0:0 2:0 32 0] [1] 0 0
r 1.009004734 _6_ RTR  --- 0 AODV 44 [13a 6 2 800] ------- [2:255 0:255 30 6] [0x4 1 [2 10] 10.000000] (REPLY)
f 1.009004734 _6_ RTR  --- 0 AODV 44 [13a 6 2 800] ------- [2:255 0:255 29 0] [0x4 2 [2 10] 10.000000] (REPLY)
s 1.010382125 _1_ RTR  --- 0 AODV 48 [0 ffffffff 0 800] ------- [1:255 -1:255 29 0] [0x2 2 1 [2 0] [0 12]] (REQUEST)
r 1.013151472 _6_ RTR  --- 0 AODV 48 [0 ffffffff 1 800] ------- [1:255 -1:255 29 0] [0x2 2 1 [2 0] [0 12]] (REQUEST)
r 1.013151689 _2_ RTR  --- 0 AODV 48 [0 ffffffff 1 800] ------- [1:255 -1:255 29 0] [0x2 2 1 [2 0] [0 12]] (REQUEST)
r 1.013151745 _4_ RTR  --- 0 AODV 48 [0 ffffffff 1 800] ------- [1:255 -1:255 29 0] [0x2 2 1 [2 0] [0 12]] (REQUEST)
r 1.013151846 _0_ RTR  --- 0 AODV 48 [0 ffffffff 1 800] ------- [1:255 -1:255 29 0] [0x2 2 1 [2 0] [0 12]] (REQUEST)
r 1.013151974 _5_ RTR  --- 0 AODV 48 [0 ffffffff 1 800] ------- [1:255 -1:255 29 0] [0x2 2 1 [2 0] [0 12]] (REQUEST)
r 1.014755867 _0_ RTR  --- 0 AODV 44 [13a 0 6 800] ------- [2:255 0:255 29 0] [0x4 2 [2 10] 10.000000] (REPLY)
s 1.014755867 _0_ RTR  --- 0 cbr 1020 [0 0 0 0] ------- [0:0 2:0 30 6] [0] 0 0
s 1.015219314 _5_ RTR  --- 0 AODV 48 [0 ffffffff 1 800] ------- [5:255 -1:255 28 0] [0x2 3 1 [2 0] [0 12]] (REQUEST)
s 1.016000000 _0_ AGT  --- 2 cbr 1000 [0 0 0 0] ------- [0:0 2:0 32 0] [2] 0 0
r 1.016000000 _0_ RTR  --- 2 cbr 1000 [0 0 0 0] ------- [0:0 2:0 32 0] [2] 0 0
s 1.016000000 _0_ RTR  --- 2 cbr 1020 [0 0 0 0] ------- [0:0 2:0 30 6] [2] 0 0
s 1.024000000 _0_ AGT  --- 3 cbr 1000 [0 0 0 0] ------- [0:0 2:0 32 0] [3] 0 0
r 1.024000000 _0_ RTR  --- 3 cbr 1000 [0 0 0 0] ------- [0:0 2:0 32 0] [3] 0 0
s 1.024000000 _0_ RTR  --- 3 cbr 1020 [0 0 0 0] ------- [0:0 2:0 30 6] [3] 0 0
s 1.024755867 _0_ RTR  --- 1 cbr 1020 [0 0 0 0] ------- [0:0 2:0 30 6] [1] 0 0
r 1.024902261 _6_ RTR  --- 0 cbr 1020 [13a 6 0 800] ------- [0:0 2:0 30 6] [0] 1 0
f 1.024902261 _6_ RTR  --- 0 cbr 1020 [13a 6 0 800] ------- [0:0 2:0 29 2] [0] 1 0
s 1.027940358 _1_ RTR  --- 0 AODV 44 [0 0 0 0] ------- [1:255 -1:255 1 0] [0x1 1 [1 12] 4.000000] (HELLO)
s 1.032000000 _0_ AGT  --- 4 cbr 1000 [0 0 0 0] ------- [0:0 2:0 32 0] [4] 0 0
r 1.032000000 _0_ RTR  --- 4 cbr 1000 [0 0 0 0] ------- [0:0 2:0 32 0] [4] 0 0
s 1.032000000 _0_ RTR  --- 4 cbr 1020 [0 0 0 0] ------- [0:0 2:0 30 6] [4] 0 0
r 1.034609454 _6_ RTR  --- 2 cbr 1020 [13a 6 0 800] ------- [0:0 2:0 30 6] [2] 1 0
f 1.034609454 _6_ RTR  --- 2 cbr 1020 [13a 6 0 800] ------- [0:0 2:0 29 2] [2] 1 0
r 1.035910000 _6_ RTR  --- 0 AODV 44 [0 ffffffff 1 800] ------- [1:255 -1:255 1 0] [0x1 1 [1 12] 4.000000] (HELLO)
r 1.035910217 _2_ RTR  --- 0 AODV 44 [0 ffffffff 1 800] ------- [1:255 -1:255 1 0] [0x1 1 [1 12] 4.000000] (HELLO)
r 1.035910273 _4_ RTR  --- 0 AODV 44 [0 ffffffff 1 800] ------- [1:255 -1:255 1 0] [0x1 1 [1 12] 4.000000] (HELLO)
r 1.035910374 _0_ RTR  --- 0 AODV 44 [0 ffffffff 1 800] ------- [1:255 -1:255 1 0] [0x1 1 [1 12] 4.000000] (HELLO)
r 1.035910501 _5_ RTR  --- 0 AODV 44 [0 ffffffff 1 800] ------- [1:255 -1:255 1 0] [0x1 1 [1 12] 4.000000] (HELLO)
r 1.036828966 _2_ RTR  --- 0 AODV 48 [0 ffffffff 5 800] ------- [5:255 -1:255 28 0] [0x2 3 1 [2 0] [0 12]] (REQUEST)
s 1.040000000 _0_ AGT  --- 5 cbr 1000 [0 0 0 0] ------- [0:0 2:0 32 0] [5] 0 0
r 1.040000000 _0_ RTR  --- 5 cbr 1000 [0 0 0 0] ------- [0:0 2:0 32 0] [5] 0 0
s 1.040000000 _0_ RTR  --- 5 cbr 1020 [0 0 0 0] ------- [0:0 2:0 30 6] [5] 0 0
r 1.046990042 _6_ RTR  --- 3 cbr 1020 [13a 6 0 800] ------- [0:0 2:0 30 6] [3] 1 0
f 1.046990042 _6_ RTR  --- 3 cbr 1020 [13a 6 0 800] ------- [0:0 2:0 29 2] [3] 1 0
s 1.048000000 _0_ AGT  --- 6 cbr 1000 [0 0 0 0] ------- [0:0 2:0 32 0] [6] 0 0
r 1.048000000 _0_ RTR  --- 6 cbr 1000 [0 0 0 0] ------- [0:0 2:0 32 0] [6] 0 0
s 1.048000000 _0_ RTR  --- 6 cbr 1020 [0 0 0 0] ------- [0:0 2:0 30 6] [6] 0 0
s 1.056000000 _0_ AGT  --- 7 cbr 1000 [0 0 0 0] ------- [0:0 2:0 32 0] [7] 0 0
r 1.056000000 _0_ RTR  --- 7 cbr 1000 [0 0 0 0] ------- [0:0 2:0 32 0] [7] 0 0
s 1.056000000 _0_ RTR  --- 7 cbr 1020 [0 0 0 0] ------- [0:0 2:0 30 6] [7] 0 0
r 1.056715396 _2_ AGT  --- 0 cbr 1020 [13a 2 6 800] ------- [0:0 2:0 29 2] [0] 2 0
s 1.064000000 _0_ AGT  --- 8 cbr 1000 [0 0 0 0] ------- [0:0 2:0 32 0] [8] 0 0
r 1.064000000 _0_ RTR  --- 8 cbr 1000 [0 0 0 0] ------- [0:0 2:0 32 0] [8] 0 0
s 1.064000000 _0_ RTR  --- 8 cbr 1020 [0 0 0 0] ------- [0:0 2:0 30 6] [8] 0 0
r 1.066441201 _2_ AGT  --- 2 cbr 1020 [13a 2 6 800] ------- [0:0 2:0 29 2] [2] 2 0
s 1.072000000 _0_ AGT  --- 9 cbr 1000 [0 0 0 0] ------- [0:0 2:0 32 0] [9] 0 0
r 1.072000000 _0_ RTR  --- 9 cbr 1000 [0 0 0 0] ------- [0:0 2:0 32 0] [9] 0 0
s 1.072000000 _0_ RTR  --- 9 cbr 1020 [0 0 0 0] ------- [0:0 2:0 30 6] [9] 0 0
r 1.076447005 _2_ AGT  --- 3 cbr 1020 [13a 2 6 800] ------- [0:0 2:0 29 2] [3] 2 0
s 1.080000000 _0_ AGT  --- 10 cbr 1000 [0 0 0 0] ------- [0:0 2:0 32 0] [10] 0 0
r 1.080000000 _0_ RTR  --- 10 cbr 1000 [0 0 0 0] ------- [0:0 2:0 32 0] [10] 0 0
s 1.080000000 _0_ RTR  --- 10 cbr 1020 [0 0 0 0] ------- [0:0 2:0 30 6] [10] 0 0
r 1.086638537 _6_ RTR  --- 1 cbr 1020 [13a 6 0 800] ------- [0:0 2:0 30 6] [1] 1 0
f 1.086638537 _6_ RTR  --- 1 cbr 1020 [13a 6 0 800] ------- [0:0 2:0 29 2] [1] 1 0
s 1.088000000 _0_ AGT  --- 11 cbr 1000 [0 0 0 0] ------- [0:0 2:0 32 0] [11] 0 0
r 1.088000000 _0_ RTR  --- 11 cbr 1000 [0 0 0 0] ------- [0:0 2:0 32 0] [11] 0 0
s 1.088000000 _0_ RTR  --- 11 cbr 1020 [0 0 0 0] ------- [0:0 2:0 30 6] [11] 0 0
s 1.096000000 _0_ AGT  --- 12 cbr 1000 [0 0 0 0] ------- [0:0 2:0 32 0] [12] 0 0
r 1.096000000 _0_ RTR  --- 12 cbr 1000 [0 0 0 0] ------- [0:0 2:0 32 0] [12] 0 0
s 1.096000000 _0_ RTR  --- 12 cbr 1020 [0 0 0 0] ------- [0:0 2:0 30 6] [12] 0 0
r 1.096383890 _2_ AGT  --- 1 cbr 1020 [13a 2 6 800] ------- [0:0 2:0 29 2] [1] 2 0
s 1.104000000 _0_ AGT  --- 13 cbr 1000 [0 0 0 0] ------- [0:0 2:0 32 0] [13] 0 0
r 1.104000000 _0_ RTR  --- 13 cbr 1000 [0 0 0 0] ------- [0:0 2:0 32 0] [13] 0 0
s 1.104000000 _0_ RTR  --- 13 cbr 1020 [0 0 0 0] ------- [0:0 2:0 30 6] [13] 0 0
r 1.106475422 _6_ RTR  --- 4 cbr 1020 [13a 6 0 800] ------- [0:0 2:0 30 6] [4] 1 0
f 1.106475422 _6_ RTR  --- 4 cbr 1020 [13a 6 0 800] ------- [0:0 2:0 29 2] [4] 1 0
s 1.112000000 _0_ AGT  --- 14 cbr 1000 [0 0 0 0] ------- [0:0 2:0 32 0] [14] 0 0
r 1.112000000 _0_ RTR  --- 14 cbr 1000 [0 0 0 0] ------- [0:0 2:0 32 0] [14] 0 0
s 1.112000000 _0_ RTR  --- 14 cbr 1020 [0 0 0 0] ------- [0:0 2:0 30 6] [14] 0 0
r 1.116262615 _6_ RTR  --- 5 cbr 1020 [13a 6 0 800] ------- [0:0 2:0 30 6] [5] 1 0
f 1.116262615 _6_ RTR  --- 5 cbr 1020 [13a 6 0 800] ------- [0:0 2:0 29 2] [5] 1 0
s 1.120000000 _0_ AGT  --- 15 cbr 1000 [0 0 0 0] ------- [0:0 2:0 32 0] [15] 0 0
r 1.120000000 _0_ RTR  --- 15 cbr 1000 [0 0 0 0] ------- [0:0 2:0 32 0] [15] 0 0
s 1.120000000 _0_ RTR  --- 15 cbr 1020 [0 0 0 0] ------- [0:0 2:0 30 6] [15] 0 0
r 1.126387968 _2_ AGT  --- 4 cbr 1020 [13a 2 6 800] ------- [0:0 2:0 29 2] [4] 2 0
s 1.128000000 _0_ AGT  --- 16 cbr 1000 [0 0 0 0] ------- [0:0 2:0 32 0] [16] 0 0
r 1.128000000 _0_ RTR  --- 16 cbr 1000 [0 0 0 0] ------- [0:0 2:0 32 0] [16] 0 0
s 1.128000000 _0_ RTR  --- 16 cbr 1020 [0 0 0 0] ------- [0:0 2:0 30 6] [16] 0 0
s 1.136000000 _0_ AGT  --- 17 cbr 1000 [0 0 0 0] ------- [0:0 2:0 32 0] [17] 0 0
r 1.136000000 _0_ RTR  --- 17 cbr 1000 [0 0 0 0] ------- [0:0 2:0 32 0] [17] 0 0
s 1.136000000 _0_ RTR  --- 17 cbr 1020 [0 0 0 0] ------- [0:0 2:0 30 6] [17] 0 0
r 1.136493773 _2_ AGT  --- 5 cbr 1020 [13a 2 6 800] ------- [0:0 2:0 29 2] [5] 2 0
s 1.144000000 _0_ AGT  --- 18 cbr 1000 [0 0 0 0] ------- [0:0 2:0 32 0] [18] 0 0
r 1.144000000 _0_ RTR  --- 18 cbr 1000 [0 0 0 0] ------- [0:0 2:0 32 0] [18] 0 0
s 1.144000000 _0_ RTR  --- 18 cbr 1020 [0 0 0 0] ------- [0:0 2:0 30 6] [18] 0 0
r 1.146625304 _6_ RTR  --- 6 cbr 1020 [13a 6 0 800] ------- [0:0 2:0 30 6] [6] 1 0
f 1.146625304 _6_ RTR  --- 6 cbr 1020 [13a 6 0 800] ------- [0:0 2:0 29 2] [6] 1 0
s 1.149577727 _5_ RTR  --- 0 AODV 44 [0 0 0 0] ------- [5:255 -1:255 1 0] [0x1 1 [5 6] 4.000000] (HELLO)
s 1.152000000 _0_ AGT  --- 19 cbr 1000 [0 0 0 0] ------- [0:0 2:0 32 0] [19] 0 0
r 1.152000000 _0_ RTR  --- 19 cbr 1000 [0 0 0 0] ------- [0:0 2:0 32 0] [19] 0 0
s 1.152000000 _0_ RTR  --- 19 cbr 1020 [0 0 0 0] ------- [0:0 2:0 30 6] [19] 0 0
r 1.156370658 _2_ AGT  --- 6 cbr 1020 [13a 2 6 800] ------- [0:0 2:0 29 2] [6] 2 0
r 1.157901537 _2_ RTR  --- 0 AODV 44 [0 ffffffff 5 800] ------- [5:255 -1:255 1 0] [0x1 1 [5 6] 4.000000] (HELLO)
r 1.157901846 _1_ RTR  --- 0 AODV 44 [0 ffffffff 5 800] ------- [5:255 -1:255 1 0] [0x1 1 [5 6] 4.000000] (HELLO)
s 1.158238026 _7_ RTR  --- 0 AODV 44 [0 0 0 0] ------- [7:255 -1:255 1 0] [0x1 1 [7 4] 4.000000] (HELLO)
s 1.160000000 _0_ AGT  --- 20 cbr 1000 [0 0 0 0] ------- [0:0 2:0 32 0] [20] 0 0
r 1.160000000 _0_ RTR  --- 20 cbr 1000 [0 0 0 0] ------- [0:0 2:0 32 0] [20] 0 0
s 1.160000000 _0_ RTR  --- 20 cbr 1020 [0 0 0 0] ------- [0:0 2:0 30 6] [20] 0 0
s 1.168000000 _0_ AGT  --- 21 cbr 1000 [0 0 0 0] ------- [0:0 2:0 32 0] [21] 0 0
r 1.168000000 _0_ RTR  --- 21 cbr 1000 [0 0 0 0] ------- [0:0 2:0 32 0] [21] 0 0
s 1.168000000 _0_ RTR  --- 21 cbr 1020 [0 0 0 0] ------- [0:0 2:0 30 6] [21] 0 0
r 1.168758825 _6_ RTR  --- 7 cbr 1020 [13a 6 0 800] ------- [0:0 2:0 30 6] [7] 1 0
f 1.168758825 _6_ RTR  --- 7 cbr 1020 [13a 6 0 800] ------- [0:0 2:0 29 2] [7] 1 0
s 1.176000000 _0_ AGT  --- 22 cbr 1000 [0 0 0 0] ------- [0:0 2:0 32 0] [22] 0 0
r 1.176000000 _0_ RTR  --- 22 cbr 1000 [0 0 0 0] ------- [0:0 2:0 32 0] [22] 0 0
s 1.176000000 _0_ RTR  --- 22 cbr 1020 [0 0 0 0] ------- [0:0 2:0 30 6] [22] 0 0
r 1.178826017 _6_ RTR  --- 8 cbr 1020 [13a 6 0 800] ------- [0:0 2:0 30 6] [8] 1 0
f 1.178826017 _6_ RTR  --- 8 cbr 1020 [13a 6 0 800] ------- [0:0 2:0 29 2] [8] 1 0
s 1.184000000 _0_ AGT  --- 23 cbr 1000 [0 0 0 0] ------- [0:0 2:0 32 0] [23] 0 0
r 1.184000000 _0_ RTR  --- 23 cbr 1000 [0 0 0 0] ------- [0:0 2:0 32 0] [23] 0 0
s 1.184000000 _0_ RTR  --- 23 cbr 1020 [0 0 0 0] ------- [0:0 2:0 30 6] [23] 0 0
r 1.188531371 _2_ AGT  --- 7 cbr 1020 [13a 2 6 800] ------- [0:0 2:0 29 2] [7] 2 0
s 1.192000000 _0_ AGT  --- 24 cbr 1000 [0 0 0 0] ------- [0:0 2:0 32 0] [24] 0 0
r 1.192000000 _0_ RTR  --- 24 cbr 1000 [0 0 0 0] ------- [0:0 2:0 32 0] [24] 0 0
s 1.192000000 _0_ RTR  --- 24 cbr 1020 [0 0 0 0] ------- [0:0 2:0 30 6] [24] 0 0
r 1.198357176 _2_ AGT  --- 8 cbr 1020 [13a 2 6 800] ------- [0:0 2:0 29 2] [8] 2 0
s 1.200000000 _0_ AGT  --- 25 cbr 1000 [0 0 0 0] ------- [0:0 2:0 32 0] [25] 0 0
r 1.200000000 _0_ RTR  --- 25 cbr 1000 [0 0 0 0] ------- [0:0 2:0 32 0] [25] 0 0
s 1.200000000 _0_ RTR  --- 25 cbr 1020 [0 0 0 0] ------- [0:0 2:0 30 6] [25] 0 0
s 1.208000000 _0_ AGT  --- 26 cbr 1000 [0 0 0 0] ------- [0:0 2:0 32 0] [26] 0 0
r 1.208000000 _0_ RTR  --- 26 cbr 1000 [0 0 0 0] ------- [0:0 2:0 32 0] [26] 0 0
s 1.208000000 _0_ RTR  --- 26 cbr 1020 [0 0 0 0] ------- [0:0 2:0 30 6] [26] 0 0
r 1.208488707 _6_ RTR  --- 9 cbr 1020 [13a 6 0 800] ------- [0:0 2:0 30 6] [9] 1 0
f 1.208488707 _6_ RTR  --- 9 cbr 1020 [13a 6 0 800] ------- [0:0 2:0 29 2] [9] 1 0
s 1.216000000 _0_ AGT  --- 27 cbr 1000 [0 0 0 0] ------- [0:0 2:0 32 0] [27] 0 0
r 1.216000000 _0_ RTR  --- 27 cbr 1000 [0 0 0 0] ------- [0:0 2:0 32 0] [27] 0 0
s 1.216000000 _0_ RTR  --- 27 cbr 1020 [0 0 0 0] ------- [0:0 2:0 30 6] [27] 0 0
r 1.218154061 _2_ AGT  --- 9 cbr 1020 [13a 2 6 800] ------- [0:0 2:0 29 2] [9] 2 0
s 1.224000000 _0_ AGT  --- 28 cbr 1000 [0 0 0 0] ------- [0:0 2:0 32 0] [28] 0 0
r 1.224000000 _0_ RTR  --- 28 cbr 1000 [0 0 0 0] ------- [0:0 2:0 32 0] [28] 0 0
s 1.224000000 _0_ RTR  --- 28 cbr 1020 [0 0 0 0] ------- [0:0 2:0 30 6] [28] 0 0
r 1.228325592 _6_ RTR  --- 10 cbr 1020 [13a 6 0 800] ------- [0:0 2:0 30 6] [10] 1 0
f 1.228325592 _6_ RTR  --- 10 cbr 1020 [13a 6 0 800] ------- [0:0 2:0 29 2] [10] 1 0
s 1.232000000 _0_ AGT  --- 29 cbr 1000 [0 0 0 0] ------- [0:0 2:0 32 0] [29] 0 0
r 1.232000000 _0_ RTR  --- 29 cbr 1000 [0 0 0 0] ------- [0:0 2:0 32 0] [29] 0 0
s 1.232000000 _0_ RTR  --- 29 cbr 1020 [0 0 0 0] ------- [0:0 2:0 30 6] [29] 0 0
r 1.238310946 _2_ AGT  --- 10 cbr 1020 [13a 2 6 800] ------- [0:0 2:0 29 2] [10] 2 0
s 1.240000000 _0_ AGT  --- 30 cbr 1000 [0 0 0 0] ------- [0:0 2:0 32 0] [30] 0 0
r 1.240000000 _0_ RTR  --- 30 cbr 1000 [0 0 0 0] ------- [0:0 2:0 32 0] [30] 0 0
s 1.240000000 _0_ RTR  --- 30 cbr 1020 [0 0 0 0] ------- [0:0 2:0 30 6] [30] 0 0
s 1.248000000 _0_ AGT  --- 31 cbr 1000 [0 0 0 0] ------- [0:0 2:0 32 0] [31] 0 0
r 1.248000000 _0_ RTR  --- 31 cbr 1000 [0 0 0 0] ------- [0:0 2:0 32 0] [31] 0 0
s 1.248000000 _0_ RTR  --- 31 cbr 1020 [0 0 0 0] ------- [0:0 2:0 30 6] [31] 0 0
r 1.248462477 _6_ RTR  --- 11 cbr 1020 [13a 6 0 800] ------- [0:0 2:0 30 6] [11] 1 0
f 1.248462477 _6_ RTR  --- 11 cbr 1020 [13a 6 0 800] ------- [0:0 2:0 29 2] [11] 1 0
s 1.256000000 _0_ AGT  --- 32 cbr 1000 [0 0 0 0] ------- [0:0 2:0 32 0] [32] 0 0
r 1.256000000 _0_ RTR  --- 32 cbr 1000 [0 0 0 0] ------- [0:0 2:0 32 0] [32] 0 0
s 1.256000000 _0_ RTR  --- 32 cbr 1020 [0 0 0 0] ------- [0:0 2:0 30 6] [32] 0 0
r 1.258147830 _2_ AGT  --- 11 cbr 1020 [13a 2 6 800] ------- [0:0 2:0 29 2] [11] 2 0
s 1.264000000 _0_ AGT  --- 33 cbr 1000 [0 0 0 0] ------- [0:0 2:0 32 0] [33] 0 0
r 1.264000000 _0_ RTR  --- 33 cbr 1000 [0 0 0 0] ------- [0:0 2:0 32 0] [33] 0 0
s 1.264000000 _0_ RTR  --- 33 cbr 1020 [0 0 0 0] ------- [0:0 2:0 30 6] [33] 0 0
r 1.268499362 _6_ RTR  --- 12 cbr 1020 [13a 6 0 800] ------- [0:0 2:0 30 6] [12] 1 0
f 1.268499362 _6_ RTR  --- 12 cbr 1020 [13a 6 0 800] ------- [0:0 2:0 29 2] [12] 1 0
s 1.272000000 _0_ AGT  --- 34 cbr 1000 [0 0 0 0] ------- [0:0 2:0 32 0] [34] 0 0
r 1.272000000 _0_ RTR  --- 34 cbr 1000 [0 0 0 0] ------- [0:0 2:0 32 0] [34] 0 0
s 1.272000000 _0_ RTR  --- 34 cbr 1020 [0 0 0 0] ------- [0:0 2:0 30 6] [34] 0 0
r 1.278184715 _2_ AGT  --- 12 cbr 1020 [13a 2 6 800] ------- [0:0 2:0 29 2] [12] 2 0
s 1.280000000 _0_ AGT  --- 35 cbr 1000 [0 0 0 0] ------- [0:0 2:0 32 0] [35] 0 0
r 1.280000000 _0_ RTR  --- 35 cbr 1000 [0 0 0 0] ------- [0:0 2:0 32 0] [35] 0 0
s 1.280000000 _0_ RTR  --- 35 cbr 1020 [0 0 0 0] ------- [0:0 2:0 30 6] [35] 0 0
s 1.288000000 _0_ AGT  --- 36 cbr 1000 [0 0 0 0] ------- [0:0 2:0 32 0] [36] 0 0
r 1.288000000 _0_ RTR  --- 36 cbr 1000 [0 0 0 0] ------- [0:0 2:0 32 0] [36] 0 0
s 1.288000000 _0_ RTR  --- 36 cbr 1020 [0 0 0 0] ------- [0:0 2:0 30 6] [36] 0 0
r 1.288476247 _6_ RTR  --- 13 cbr 1020 [13a 6 0 800] ------- [0:0 2:0 30 6] [13] 1 0
f 1.288476247 _6_ RTR  --- 13 cbr 1020 [13a 6 0 800] ------- [0:0 2:0 29 2] [13] 1 0
s 1.296000000 _0_ AGT  --- 37 cbr 1000 [0 0 0 0] ------- [0:0 2:0 32 0] [37] 0 0
r 1.296000000 _0_ RTR  --- 37 cbr 1000 [0 0 0 0] ------- [0:0 2:0 32 0] [37] 0 0
s 1.296000000 _0_ RTR  --- 37 cbr 1020 [0 0 0 0] ------- [0:0 2:0 30 6] [37] 0 0
r 1.298141600 _2_ AGT  --- 13 cbr 1020 [13a 2 6 800] ------- [0:0 2:0 29 2] [13] 2 0
s 1.304000000 _0_ AGT  --- 38 cbr 1000 [0 0 0 0] ------- [0:0 2:0 32 0] [38] 0 0
r 1.304000000 _0_ RTR  --- 38 cbr 1000 [0 0 0 0] ------- [0:0 2:0 32 0] [38] 0 0
s 1.304000000 _0_ RTR  --- 38 cbr 1020 [0 0 0 0] ------- [0:0 2:0 30 6] [38] 0 0
r 1.308233132 _6_ RTR  --- 14 cbr 1020 [13a 6 0 800] ------- [0:0 2:0 30 6] [14] 1 0
f 1.308233132 _6_ RTR  --- 14 cbr 1020 [13a 6 0 800] ------- [0:0 2:0 29 2] [14] 1 0
s 1.312000000 _0_ AGT  --- 39 cbr 1000 [0 0 0 0] ------- [0:0 2:0 32 0] [39] 0 0
r 1.312000000 _0_ RTR  --- 39 cbr 1000 [0 0 0 0] ------- [0:0 2:0 32 0] [39] 0 0
s 1.312000000 _0_ RTR  --- 39 cbr 1020 [0 0 0 0] ------- [0:0 2:0 30 6] [39] 0 0
r 1.317998485 _2_ AGT  --- 14 cbr 1020 [13a 2 6 800] ------- [0:0 2:0 29 2] [14] 2 0
s 1.320000000 _0_ AGT  --- 40 cbr 1000 [0 0 0 0] ------- [0:0 2:0 32 0] [40] 0 0
r 1.320000000 _0_ RTR  --- 40 cbr 1000 [0 0 0 0] ------- [0:0 2:0 32 0] [40] 0 0
s 1.320000000 _0_ RTR  --- 40 cbr 1020 [0 0 0 0] ------- [0:0 2:0 30 6] [40] 0 0
s 1.328000000 _0_ AGT  --- 41 cbr 1000 [0 0 0 0] ------- [0:0 2:0 32 0] [41] 0 0
r 1.328000000 _0_ RTR  --- 41 cbr 1000 [0 0 0 0] ------- [0:0 2:0 32 0] [41] 0 0
s 1.328000000 _0_ RTR  --- 41 cbr 1020 [0 0 0 0] ------- [0:0 2:0 30 6] [41] 0 0
r 1.328550017 _6_ RTR  --- 15 cbr 1020 [13a 6 0 800] ------- [0:0 2:0 30 6] [15] 1 0
f 1.328550017 _6_ RTR  --- 15 cbr 1020 [13a 6 0 800] ------- [0:0 2:0 29 2] [15] 1 0
s 1.336000000 _0_ AGT  --- 42 cbr 1000 [0 0 0 0] ------- [0:0 2:0 32 0] [42] 0 0
r 1.336000000 _0_ RTR  --- 42 cbr 1000 [0 0 0 0] ------- [0:0 2:0 32 0] [42] 0 0
s 1.336000000 _0_ RTR  --- 42 cbr 1020 [0 0 0 0] ------- [0:0 2:0 30 6] [42] 0 0
r 1.339003210 _6_ RTR  --- 16 cbr 1020 [13a 6 0 800] ------- [0:0 2:0 30 6] [16] 1 0
f 1.339003210 _6_ RTR  --- 16 cbr 1020 [13a 6 0 800] ------- [0:0 2:0 29 2] [16] 1 0
s 1.344000000 _0_ AGT  --- 43 cbr 1000 [0 0 0 0] ------- [0:0 2:0 32 0] [43] 0 0
r 1.344000000 _0_ RTR  --- 43 cbr 1000 [0 0 0 0] ------- [0:0 2:0 32 0] [43] 0 0
s 1.344000000 _0_ RTR  --- 43 cbr 1020 [0 0 0 0] ------- [0:0 2:0 30 6] [43] 0 0
r 1.348690402 _6_ RTR  --- 17 cbr 1020 [13a 6 0 800] ------- [0:0 2:0 30 6] [17] 1 0
f 1.348690402 _6_ RTR  --- 17 cbr 1020 [13a 6 0 800] ------- [0:0 2:0 29 2] [17] 1 0
s 1.352000000 _0_ AGT  --- 44 cbr 1000 [0 0 0 0] ------- [0:0 2:0 32 0] [44] 0 0
r 1.352000000 _0_ RTR  --- 44 cbr 1000 [0 0 0 0] ------- [0:0 2:0 32 0] [44] 0 0
s 1.352000000 _0_ RTR  --- 44 cbr 1020 [0 0 0 0] ------- [0:0 2:0 30 6] [44] 0 0
r 1.358377595 _6_ RTR  --- 18 cbr 1020 [13a 6 0 800] ------- [0:0 2:0 30 6] [18] 1 0
f 1.358377595 _6_ RTR  --- 18 cbr 1020 [13a 6 0 800] ------- [0:0 2:0 29 2] [18] 1 0
s 1.360000000 _0_ AGT  --- 45 cbr 1000 [0 0 0 0] ------- [0:0 2:0 32 0] [45] 0 0
r 1.360000000 _0_ RTR  --- 45 cbr 1000 [0 0 0 0] ------- [0:0 2:0 32 0] [45] 0 0
s 1.360000000 _0_ RTR  --- 45 cbr 1020 [0 0 0 0] ------- [0:0 2:0 30 6] [45] 0 0
s 1.368000000 _0_ AGT  --- 46 cbr 1000 [0 0 0 0] ------- [0:0 2:0 32 0] [46] 0 0
r 1.368000000 _0_ RTR  --- 46 cbr 1000 [0 0 0 0] ------- [0:0 2:0 32 0] [46] 0 0
s 1.368000000 _0_ RTR  --- 46 cbr 1020 [0 0 0 0] ------- [0:0 2:0 30 6] [46] 0 0
r 1.368242949 _2_ AGT  --- 15 cbr 1020 [13a 2 6 800] ------- [0:0 2:0 29 2] [15] 2 0
s 1.376000000 _0_ AGT  --- 47 cbr 1000 [0 0 0 0] ------- [0:0 2:0 32 0] [47] 0 0
r 1.376000000 _0_ RTR  --- 47 cbr 1000 [0 0 0 0] ------- [0:0 2:0 32 0] [47] 0 0
s 1.376000000 _0_ RTR  --- 47 cbr 1020 [0 0 0 0] ------- [0:0 2:0 30 6] [47] 0 0
r 1.378348753 _2_ AGT  --- 16 cbr 1020 [13a 2 6 800] ------- [0:0 2:0 29 2] [16] 2 0
s 1.384000000 _0_ AGT  --- 48 cbr 1000 [0 0 0 0] ------- [0:0 2:0 32 0] [48] 0 0
r 1.384000000 _0_ RTR  --- 48 cbr 1000 [0 0 0 0] ------- [0:0 2:0 32 0] [48] 0 0
s 1.384000000 _0_ RTR  --- 48 cbr 1020 [0 0 0 0] ------- [0:0 2:0 30 6] [48] 0 0
r 1.388394558 _2_ AGT  --- 17 cbr 1020 [13a 2 6 800] ------- [0:0 2:0 29 2] [17] 2 0
s 1.392000000 _0_ AGT  --- 49 cbr 1000 [0 0 0 0] ------- [0:0 2:0 32 0] [49] 0 0
r 1.392000000 _0_ RTR  --- 49 cbr 1000 [0 0 0 0] ------- [0:0 2:0 32 0] [49] 0 0
s 1.392000000 _0_ RTR  --- 49 cbr 1020 [0 0 0 0] ------- [0:0 2:0 30 6] [49] 0 0
r 1.398540363 _2_ AGT  --- 18 cbr 1020 [13a 2 6 800] ------- [0:0 2:0 29 2] [18] 2 0
s 1.400000000 _0_ AGT  --- 50 cbr 1000 [0 0 0 0] ------- [0:0 2:0 32 0] [50] 0 0
r 1.400000000 _0_ RTR  --- 50 cbr 1000 [0 0 0 0] ------- [0:0 2:0 32 0] [50] 0 0
s 1.400000000 _0_ RTR  --- 50 cbr 1020 [0 0 0 0] ------- [0:0 2:0 30 6] [50] 0 0
s 1.408000000 _0_ AGT  --- 51 cbr 1000 [0 0 0 0] ------- [0:0 2:0 32 0] [51] 0 0
r 1.408000000 _0_ RTR  --- 51 cbr 1000 [0 0 0 0] ------- [0:0 2:0 32 0] [51] 0 0
s 1.408000000 _0_ RTR  --- 51 cbr 1020 [0 0 0 0] ------- [0:0 2:0 30 6] [51] 0 0
r 1.408611894 _6_ RTR  --- 19 cbr 1020 [13a 6 0 800] ------- [0:0 2:0 30 6] [19] 1 0
f 1.408611894 _6_ RTR  --- 19 cbr 1020 [13a 6 0 800] ------- [0:0 2:0 29 2] [19] 1 0
s 1.416000000 _0_ AGT  --- 52 cbr 1000 [0 0 0 0] ------- [0:0 2:0 32 0] [52] 0 0
r 1.416000000 _0_ RTR  --- 52 cbr 1000 [0 0 0 0] ------- [0:0 2:0 32 0] [52] 0 0
s 1.416000000 _0_ RTR  --- 52 cbr 1020 [0 0 0 0] ------- [0:0 2:0 30 6] [52] 0 0
r 1.418457248 _2_ AGT  --- 19 cbr 1020 [13a 2 6 800] ------- [0:0 2:0 29 2] [19] 2 0
s 1.424000000 _0_ AGT  --- 53 cbr 1000 [0 0 0 0] ------- [0:0 2:0 32 0] [53] 0 0
r 1.424000000 _0_ RTR  --- 53 cbr 1000 [0 0 0 0] ------- [0:0 2:0 32 0] [53] 0 0
s 1.424000000 _0_ RTR  --- 53 cbr 1020 [0 0 0 0] ------- [0:0 2:0 30 6] [53] 0 0
r 1.428868779 _6_ RTR  --- 20 cbr 1020 [13a 6 0 800] ------- [0:0 2:0 30 6] [20] 1 0
f 1.428868779 _6_ RTR  --- 20 cbr 1020 [13a 6 0 800] ------- [0:0 2:0 29 2] [20] 1 0
s 1.432000000 _0_ AGT  --- 54 cbr 1000 [0 0 0 0] ------- [0:0 2:0 32 0] [54] 0 0
r 1.432000000 _0_ RTR  --- 54 cbr 1000 [0 0 0 0] ------- [0:0 2:0 32 0] [54] 0 0
s 1.432000000 _0_ RTR  --- 54 cbr 1020 [0 0 0 0] ------- [0:0 2:0 30 6] [54] 0 0
r 1.438674133 _2_ AGT  --- 20 cbr 1020 [13a 2 6 800] ------- [0:0 2:0 29 2] [20] 2 0
s 1.440000000 _0_ AGT  --- 55 cbr 1000 [0 0 0 0] ------- [0:0 2:0 32 0] [55] 0 0
r 1.440000000 _0_ RTR  --- 55 cbr 1000 [0 0 0 0] ------- [0:0 2:0 32 0] [55] 0 0
s 1.440000000 _0_ RTR  --- 55 cbr 1020 [0 0 0 0] ------- [0:0 2:0 30 6] [55] 0 0
s 1.448000000 _0_ AGT  --- 56 cbr 1000 [0 0 0 0] ------- [0:0 2:0 32 0] [56] 0 0
r 1.448000000 _0_ RTR  --- 56 cbr 1000 [0 0 0 0] ------- [0:0 2:0 32 0] [56] 0 0
s 1.448000000 _0_ RTR  --- 56 cbr 1020 [0 0 0 0] ------- [0:0 2:0 30 6] [56] 0 0
r 1.448825664 _6_ RTR  --- 21 cbr 1020 [13a 6 0 800] ------- [0:0 2:0 30 6] [21] 1 0
f 1.448825664 _6_ RTR  --- 21 cbr 1020 [13a 6 0 800] ------- [0:0 2:0 29 2] [21] 1 0
s 1.456000000 _0_ AGT  --- 57 cbr 1000 [0 0 0 0] ------- [0:0 2:0 32 0] [57] 0 0
r 1.456000000 _0_ RTR  --- 57 cbr 1000 [0 0 0 0] ------- [0:0 2:0 32 0] [57] 0 0
s 1.456000000 _0_ RTR  --- 57 cbr 1020 [0 0 0 0] ------- [0:0 2:0 30 6] [57] 0 0
r 1.458492857 _6_ RTR  --- 22 cbr 1020 [13a 6 0 800] ------- [0:0 2:0 30 6] [22] 1 0
f 1.458492857 _6_ RTR  --- 22 cbr 1020 [13a 6 0 800] ------- [0:0 2:0 29 2] [22] 1 0
s 1.464000000 _0_ AGT  --- 58 cbr 1000 [0 0 0 0] ------- [0:0 2:0 32 0] [58] 0 0
r 1.464000000 _0_ RTR  --- 58 cbr 1000 [0 0 0 0] ------- [0:0 2:0 32 0] [58] 0 0
s 1.464000000 _0_ RTR  --- 58 cbr 1020 [0 0 0 0] ------- [0:0 2:0 30 6] [58] 0 0
r 1.468258210 _2_ AGT  --- 21 cbr 1020 [13a 2 6 800] ------- [0:0 2:0 29 2] [21] 2 0